 argument  1 = cluster_1.nw
 


============================== echo of input deck ==============================
title "Simulated Annealing"
echo

start U3O8

charge 0

#### kicked structure ####
geometry noautoz noautosym units angstrom
U -0.95318 -0.83539 -2.11329
U 0.372114 -1.69116 -1.70317
U -0.901591 -1.84246 -1.1063
O -0.589911 -1.31652 0.846628
O -1.56856 0.696673 0.0290416
O -1.84394 -2.00105 0.551636
O -0.513214 1.97172 1.51691
O -0.43019 -1.22574 -0.40661
O -1.98778 -0.896274 0.358413
O 1.56121 0.583907 -0.0610886
O 0.773509 2.08913 -0.308062
end

nwpw
  simulation_cell
    boundary_conditions aperiodic
    SC 30.0
  end
  cutoff 12.0
  lmbfgs
  Car-Parrinello
    Nose-Hoover 250.0 1500.0 250.0 1500.0 #Tion=Telc=1500K, relaxation periods=250au
    fake_mass 500.0
    time_step 5.0
    loop 10 300
    scaling 1.0 1.0
    xyz_filename     sa_en.xyz
  end
end
task pspw energy
#Freeze C group
#set geometry:actlist 1:12
set cpmd:init_velocities_temperature 1500.0
task pspw car-parrinello

#Release C group,md at low temp to reserve C6 structure
#unset geometry:actlist
#set cpmd:init_velocities_temperature 1500.0
#task pspw car-parrinello
unset cpmd:init_velocities_temperature

nwpw
  simulation_cell
    boundary_conditions aperiodic
    SC 30.0
  end
  cutoff 12.0
  lmbfgs
  Car-Parrinello
    Nose-Hoover 250.0 2000.0 250.0 2000.0 #Tion=Telc=2000K, relaxation periods=250au
    fake_mass 500.0
    time_step 5.0
    loop 10 300
    scaling 1.0 1.0
    xyz_filename     sa_en.xyz
  end
end
task pspw energy
set cpmd:init_velocities_temperature 2000.0
task pspw car-parrinello
unset cpmd:init_velocities_temperature

nwpw
  Car-Parrinello
    SA_decay 4.134d4 4.134d4              #decay rate in units of au (1au=4.1889e-17seconds)
    Nose-Hoover 250.0 2000.0 250.0 2000.0 #Tion=Telc=2000K, relaxation periods=250au
    loop 100 200
    xyz_filename     sa_cp.xyz
  end
end

set cpmd:init_velocities_temperature 2000.0
task pspw car-parrinello

charge 2

dft
  XC b3lyp
  iterations 100
end

basis
  U library crenbl_ecp
  O library aug-cc-pvdz
end

ecp
  U library crenbl_ecp
end

driver
 MAXITER 50
end

task dft optimize ignore #final optimization
================================================================================


                                         
                                         
 
 
              Northwest Computational Chemistry Package (NWChem) 6.3
              ------------------------------------------------------
 
 
                    Environmental Molecular Sciences Laboratory
                       Pacific Northwest National Laboratory
                                Richland, WA 99352
 
                              Copyright (c) 1994-2012
                       Pacific Northwest National Laboratory
                            Battelle Memorial Institute
 
             NWChem is an open-source computational chemistry package
                        distributed under the terms of the
                      Educational Community License (ECL) 2.0
             A copy of the license is included with this distribution
                              in the LICENSE.TXT file
 
                                  ACKNOWLEDGMENT
                                  --------------

            This software and its documentation were developed at the
            EMSL at Pacific Northwest National Laboratory, a multiprogram
            national laboratory, operated for the U.S. Department of Energy
            by Battelle under Contract Number DE-AC05-76RL01830. Support
            for this work was provided by the Department of Energy Office
            of Biological and Environmental Research, Office of Basic
            Energy Sciences, and the Office of Advanced Scientific Computing.


           Job information
           ---------------

    hostname        = r18i5n0
    program         = /app/nwchem/nwchem-6.3/bin/LINUX64/nwchem
    date            = Thu May  8 23:51:49 2014

    compiled        = Wed_Dec_04_11:30:19_2013
    source          = /app/nwchem/nwchem-6.3.revision2c
    nwchem branch   = 6.3
    nwchem revision = 24652
    ga revision     = 10379
    input           = cluster_1.nw
    prefix          = U3O8.
    data base       = ./U3O8.db
    status          = startup
    nproc           =       16
    time left       =     -1s



           Memory information
           ------------------

    heap     =   13107201 doubles =    100.0 Mbytes
    stack    =   13107201 doubles =    100.0 Mbytes
    global   =   26214400 doubles =    200.0 Mbytes (distinct from heap & stack)
    total    =   52428802 doubles =    400.0 Mbytes
    verify   = yes
    hardfail = no 


           Directory information
           ---------------------
 
  0 permanent = .
  0 scratch   = /work2/padamson/680328.SPIRIT
 
 
 
 
                                NWChem Input Module
                                -------------------
 
 
                                Simulated Annealing
                                -------------------

 Scaling coordinates for geometry "geometry" by  1.889725989
 (inverse scale =  0.529177249)

 
 
                             Geometry "geometry" -> ""
                             -------------------------
 
 Output coordinates in angstroms (scale by  1.889725989 to convert to a.u.)
 
  No.       Tag          Charge          X              Y              Z
 ---- ---------------- ---------- -------------- -------------- --------------
    1 U                   92.0000    -0.44378161     0.34912221    -0.84070478
    2 U                   92.0000     0.88151239    -0.50664779    -0.43058478
    3 U                   92.0000    -0.39219261    -0.65794779     0.16628522
    4 O                    8.0000    -0.08051261    -0.13200779     2.11921322
    5 O                    8.0000    -1.05916161     1.88118521     1.30162682
    6 O                    8.0000    -1.33454161    -0.81653779     1.82422122
    7 O                    8.0000    -0.00381561     3.15623221     2.78949522
    8 O                    8.0000     0.07920839    -0.04122779     0.86597522
    9 O                    8.0000    -1.47838161     0.28823821     1.63099822
   10 O                    8.0000     2.07060839     1.76841921     1.21149662
   11 O                    8.0000     1.28290739     3.27364221     0.96452322
 
      Atomic Mass 
      ----------- 
 
      U                238.050800
      O                 15.994910
 

 Effective nuclear repulsion energy (a.u.)   12923.2905482900

            Nuclear Dipole moment (a.u.) 
            ----------------------------
        X                 Y               Z
 ---------------- ---------------- ----------------
     0.0000000000     0.0000000000     0.0000000000
 
 
            XYZ format geometry
            -------------------
    11
 geometry
 U                    -0.44378161     0.34912221    -0.84070478
 U                     0.88151239    -0.50664779    -0.43058478
 U                    -0.39219261    -0.65794779     0.16628522
 O                    -0.08051261    -0.13200779     2.11921322
 O                    -1.05916161     1.88118521     1.30162682
 O                    -1.33454161    -0.81653779     1.82422122
 O                    -0.00381561     3.15623221     2.78949522
 O                     0.07920839    -0.04122779     0.86597522
 O                    -1.47838161     0.28823821     1.63099822
 O                     2.07060839     1.76841921     1.21149662
 O                     1.28290739     3.27364221     0.96452322
 
 ==============================================================================
                                internuclear distances
 ------------------------------------------------------------------------------
       center one      |      center two      | atomic units |  angstroms
 ------------------------------------------------------------------------------
    2 U                |   1 U                |     3.08028  |     1.63001
    3 U                |   1 U                |     2.69303  |     1.42509
    3 U                |   2 U                |     2.67346  |     1.41473
    4 O                |   2 U                |     5.19840  |     2.75088
    4 O                |   3 U                |     3.86710  |     2.04638
    5 O                |   1 U                |     5.11117  |     2.70472
    5 O                |   3 U                |     5.40509  |     2.86025
    6 O                |   3 U                |     3.61621  |     1.91362
    8 O                |   1 U                |     3.45290  |     1.82720
    8 O                |   2 U                |     3.01254  |     1.59417
    8 O                |   3 U                |     1.97486  |     1.04505
    8 O                |   4 O                |     2.39359  |     1.26663
    9 O                |   1 U                |     5.06483  |     2.68019
    9 O                |   3 U                |     3.88221  |     2.05438
    9 O                |   6 O                |     2.13677  |     1.13073
 ------------------------------------------------------------------------------
                         number of included internuclear distances:         15
 ==============================================================================



 ==============================================================================
                                 internuclear angles
 ------------------------------------------------------------------------------
        center 1       |       center 2       |       center 3       |  degrees
 ------------------------------------------------------------------------------
    1 U                |   3 U                |   2 U                |    70.06
    2 U                |   1 U                |   5 O                |   106.44
    1 U                |   2 U                |   8 O                |    69.03
    2 U                |   1 U                |   9 O                |    94.01
    3 U                |   1 U                |   5 O                |    81.31
    1 U                |   3 U                |   8 O                |    94.15
    1 U                |   3 U                |   9 O                |    99.16
    5 O                |   1 U                |   8 O                |    56.38
    5 O                |   1 U                |   9 O                |    36.35
    8 O                |   1 U                |   9 O                |    40.91
    2 U                |   3 U                |   1 U                |    70.06
    1 U                |   2 U                |   4 O                |    82.96
    1 U                |   2 U                |   8 O                |    69.03
    2 U                |   3 U                |   4 O                |   103.77
    2 U                |   3 U                |   8 O                |    79.24
    2 U                |   8 O                |   4 O                |   147.91
    1 U                |   3 U                |   2 U                |    70.06
    1 U                |   3 U                |   4 O                |   119.88
    3 U                |   1 U                |   5 O                |    81.31
    1 U                |   3 U                |   6 O                |   130.76
    1 U                |   3 U                |   8 O                |    94.15
    1 U                |   3 U                |   9 O                |    99.16
    2 U                |   3 U                |   4 O                |   103.77
    2 U                |   3 U                |   5 O                |   106.41
    2 U                |   3 U                |   6 O                |   144.86
    2 U                |   3 U                |   8 O                |    79.24
    2 U                |   3 U                |   9 O                |   136.68
    4 O                |   3 U                |   5 O                |    55.15
    4 O                |   3 U                |   6 O                |    43.07
    3 U                |   8 O                |   4 O                |   124.28
    4 O                |   3 U                |   9 O                |    44.09
    5 O                |   3 U                |   6 O                |    67.35
    5 O                |   3 U                |   8 O                |    46.81
    5 O                |   3 U                |   9 O                |    35.40
    6 O                |   3 U                |   8 O                |    72.00
    3 U                |   6 O                |   9 O                |    80.42
    8 O                |   3 U                |   9 O                |    59.29
    4 O                |   3 U                |   2 U                |   103.77
    4 O                |   8 O                |   2 U                |   147.91
    4 O                |   8 O                |   3 U                |   124.28
    5 O                |   1 U                |   3 U                |    81.31
    3 U                |   6 O                |   9 O                |    80.42
    8 O                |   2 U                |   1 U                |    69.03
    8 O                |   3 U                |   1 U                |    94.15
    1 U                |   8 O                |   4 O                |   154.61
    8 O                |   3 U                |   2 U                |    79.24
    2 U                |   8 O                |   4 O                |   147.91
    3 U                |   8 O                |   4 O                |   124.28
    9 O                |   3 U                |   1 U                |    99.16
    1 U                |   9 O                |   6 O                |    97.51
    9 O                |   6 O                |   3 U                |    80.42
 ------------------------------------------------------------------------------
                            number of included internuclear angles:         51
 ==============================================================================



          ****************************************************
          *                                                  *
          *               NWPW PSPW Calculation              *
          *                                                  *
          *  [ (Grassman/Stiefel manifold implementation) ]  *
          *                                                  *
          *      [ NorthWest Chemistry implementation ]      *
          *                                                  *
          *            version #5.10   06/12/02              *
          *                                                  *
          *    This code was developed by Eric J. Bylaska,   *
          *    and was based upon algorithms and code        *
          *    developed by the group of Prof. John H. Weare *
          *                                                  *
          ****************************************************
     >>>  JOB STARTED       AT Thu May  8 23:51:50 2014  <<<
          ================ input data ========================
  library name resolved from: .nwchemrc
  NWCHEM_NWPW_LIBRARY set to: </app/nwchem/comm/data/nwpw/libraryps/>
 Generating 1d pseudopotential for U   
 
 Generated formatted_filename: ./U.vpp
  library name resolved from: .nwchemrc
  NWCHEM_NWPW_LIBRARY set to: </app/nwchem/comm/data/nwpw/libraryps/>
 Generating 1d pseudopotential for O   
 
 Generated formatted_filename: ./O.vpp
 random planewave guess, initial psi:
 U3O8.movecs                                       
 -   spin, nalpha, nbeta:                     1                    33
                     0

 input psi filename:./U3O8.movecs
 Warning - Gram-Schmidt being performed on psi:   33.0000000000000     
   21.1870181837936        33.0000000000000        11.8129818162064     

 number of processors used:        16
 processor grid           :  16 x   1
 parallel mapping         :2d hilbert
 parallel mapping         :  balanced
 parallel io              :       off

 options:
      boundary conditions  = aperiodic   (version4)
      electron spin        = restricted
      exchange-correlation = LDA (Vosko et al) parameterization

 elements involved in the cluster:
      1: U   valence charge:  6.0000  lmax=  3
             comment    : Troullier-Martins pseudopotential
             pseudpotential type            :   0
             highest angular component      :   3
             local potential used           :   0
             number of non-local projections:  15
             aperiodic cutoff radius        :  1.000
             cutoff =   2.831   3.681   2.594   2.831
 
      2: O   valence charge:  6.0000  lmax=  2
             comment    : Parameterized (Chem.Phys.Lett., vol 322, page 447) Hamman psp
             pseudpotential type            :   0
             highest angular component      :   2
             local potential used           :   2
             number of non-local projections:   4
             aperiodic cutoff radius        :  1.000
             cutoff =   0.700   0.700   0.700
 

 total charge:   0.000

 atomic composition:
     U   :    3     O   :    8

 number of electrons: spin up=    33 (  33 per task)  down=    33 (  33 per task) (fourier space)
 number of orbitals : spin up=    33 (  33 per task)  down=    33 (  33 per task) (fourier space)

 supercell:
      cell_name:  cell_default                                      
      lattice:    a1=<  30.000   0.000   0.000 >
                  a2=<   0.000  30.000   0.000 >
                  a3=<   0.000   0.000  30.000 >
      reciprocal: b1=<   0.209   0.000   0.000 >
                  b2=<   0.000   0.209   0.000 >
                  b3=<   0.000   0.000   0.209 >
      lattice:    a=      30.000 b=     30.000 c=      30.000
                  alpha=  90.000 beta=  90.000 gamma=  90.000
                  omega=     27000.0

      density cutoff= 24.000  fft= 70x 70x 70(    75818 waves     4738 per task)
      wavefnc cutoff= 12.000  fft= 70x 70x 70(    26858 waves     1678 per task)

 technical parameters:
      time step=      5.80     ficticious mass=  400000.0
      tolerance=.100E-06 (energy)   0.100E-06 (density)
      maximum iterations =      1000 (   10 inner    100 outer )





== Energy Calculation ==


          ============ Grassmann lmbfgs iteration ============
     >>>  ITERATION STARTED AT Thu May  8 23:52:04 2014  <<<
    iter.           Energy         DeltaE       DeltaRho 
    ------------------------------------------------------
     -  15 steepest descent iterations performed
      10   -0.1299646121E+03   -0.19124E+01    0.17442E+02
     -  10 steepest descent iterations performed
      20   -0.1341813763E+03   -0.83852E-01    0.15316E+00
     -  10 steepest descent iterations performed
      30   -0.1345195375E+03   -0.15775E-01    0.31300E-01
     -  10 steepest descent iterations performed
      40   -0.1346171127E+03   -0.77947E-02    0.95562E-02
      50   -0.1346710999E+03   -0.25068E-02    0.11120E-01
      60   -0.1346853293E+03   -0.94389E-03    0.32873E-02
      70   -0.1346906879E+03   -0.40050E-03    0.94426E-03
      80   -0.1346939273E+03   -0.23107E-03    0.11292E-02
      90   -0.1346953891E+03   -0.86265E-04    0.41439E-03
     100   -0.1346959467E+03   -0.39877E-04    0.15783E-03
     110   -0.1346962352E+03   -0.19420E-04    0.12373E-03
     120   -0.1346963508E+03   -0.68044E-05    0.31173E-04
     130   -0.1346963944E+03   -0.31598E-05    0.10827E-04
     140   -0.1346964180E+03   -0.17897E-05    0.80129E-05
     150   -0.1346964285E+03   -0.58299E-06    0.30335E-05
     160   -0.1346964324E+03   -0.29443E-06    0.11292E-05
     170   -0.1346964343E+03   -0.11570E-06    0.51562E-06
     180   -0.1346964345E+03   -0.91720E-07    0.11891E-07
  *** tolerance ok. iteration terminated
     >>>  ITERATION ENDED   AT Thu May  8 23:53:08 2014  <<<


==  Summary Of Results  ==
 
 number of electrons: spin up=   33.00000  down=   33.00000 (real space)

 total     energy    :  -0.1346964345E+03 (   -0.12245E+02/ion)
 total orbital energy:  -0.3623367372E+02 (   -0.10980E+01/electron)
 hartree   energy    :   0.5396995017E+03 (    0.16355E+02/electron)
 exc-corr  energy    :  -0.3273825847E+02 (   -0.99207E+00/electron)
 ion-ion   energy    :   0.4310841721E+03 (    0.39189E+02/ion)

 kinetic (planewave) :   0.1166014513E+03 (    0.35334E+01/electron)
 V_local (planewave) :  -0.1131257614E+04 (   -0.34281E+02/electron)
 V_nl    (planewave) :  -0.5808568744E+02 (   -0.17602E+01/electron)
 V_Coul  (planewave) :   0.1079399003E+04 (    0.32709E+02/electron)
 V_xc.   (planewave) :  -0.4289082728E+02 (   -0.12997E+01/electron)
 Virial Coefficient  :  -0.1310748051E+01

 orbital energies:
    -0.1705515E+00 (  -4.641eV)
    -0.1768168E+00 (  -4.811eV)
    -0.1810188E+00 (  -4.926eV)
    -0.1948654E+00 (  -5.303eV)
    -0.2027416E+00 (  -5.517eV)
    -0.2098018E+00 (  -5.709eV)
    -0.2171374E+00 (  -5.909eV)
    -0.2266778E+00 (  -6.168eV)
    -0.2356440E+00 (  -6.412eV)
    -0.2519259E+00 (  -6.855eV)
    -0.2598793E+00 (  -7.072eV)
    -0.2704445E+00 (  -7.359eV)
    -0.2920502E+00 (  -7.947eV)
    -0.3061916E+00 (  -8.332eV)
    -0.3144517E+00 (  -8.557eV)
    -0.3489234E+00 (  -9.495eV)
    -0.4030084E+00 ( -10.967eV)
    -0.4547443E+00 ( -12.374eV)
    -0.5282288E+00 ( -14.374eV)
    -0.5679132E+00 ( -15.454eV)
    -0.5961312E+00 ( -16.222eV)
    -0.6162332E+00 ( -16.769eV)
    -0.7100174E+00 ( -19.321eV)
    -0.8575311E+00 ( -23.335eV)
    -0.8757069E+00 ( -23.829eV)
    -0.8803283E+00 ( -23.955eV)
    -0.8999824E+00 ( -24.490eV)
    -0.9195065E+00 ( -25.021eV)
    -0.9962369E+00 ( -27.109eV)
    -0.1008276E+01 ( -27.437eV)
    -0.1057020E+01 ( -28.763eV)
    -0.1349058E+01 ( -36.710eV)
    -0.1537792E+01 ( -41.846eV)

 Total PSPW energy   :  -0.1346964345E+03


=== Spin Contamination ===
 
 <Sexact^2> =   0.000000000000000E+000
 <S^2>      =   0.000000000000000E+000
 


== Center of Charge ==

spin up     (   -0.0793,    1.5179,    2.0357 )
spin down   (   -0.0793,    1.5179,    2.0357 )
     total  (   -0.0793,    1.5179,    2.0357 )
ionic       (   -0.0821,    1.4710,    1.9932 )
crystal     (    0.0174,   -0.0619,   -0.1140 )


== Crystal Dipole ==

mu   =  (    6.3809, -104.2700, -141.8769 ) au
|mu| =   176.1874 au,     447.7979 Debye


== Molecular Dipole wrt Center of Mass ==

mu   =  (   -0.1860,   -3.0986,   -2.8011 ) au
|mu| =     4.1812 au,      10.6269 Debye

 output psi filename:./U3O8.movecs


== Timing ==

cputime in seconds
  prologue    :   0.136810E+02
  main loop   :   0.642309E+02
  epilogue    :   0.533173E+00
  total       :   0.784451E+02
  cputime/step:   0.149028E+00       (     431 evalulations,     172 linesearches)


Time spent doing                        total          step       percent
  total time                 :   0.785364E+02  0.182219E+00       100.0 %
  i/o time                   :   0.750375E+01  0.174101E-01         9.6 %
  FFTs                       :   0.104478E+02  0.242408E-01        13.3 %
  dot products               :   0.175809E+02  0.407908E-01        22.4 %
  geodesic                   :   0.189351E+02  0.439329E-01        24.1 %
  ffm_dgemm                  :   0.567625E+00  0.131699E-02         0.7 %
  fmf_dgemm                  :   0.207412E+01  0.481235E-02         2.6 %
  m_diagonalize              :   0.167774E+00  0.389266E-03         0.2 %
  exchange correlation       :   0.650111E+00  0.150838E-02         0.8 %
  local pseudopotentials     :   0.370448E-01  0.859507E-04         0.0 %
  non-local pseudopotentials :   0.239414E+01  0.555484E-02         3.0 %
  structure factors          :   0.455003E-01  0.105569E-03         0.1 %
  phase factors              :   0.339508E-02  0.787721E-05         0.0 %
  masking and packing        :   0.182998E+01  0.424588E-02         2.3 %
  queue fft                  :   0.268015E+02  0.621844E-01        34.1 %
  queue fft (serial)         :   0.156316E+02  0.362683E-01        19.9 %
  queue fft (message passing):   0.106418E+02  0.246909E-01        13.6 %
 
     >>>  JOB COMPLETED     AT Thu May  8 23:53:09 2014  <<<

 Task  times  cpu:       73.9s     wall:       78.6s
 
 
                                NWChem Input Module
                                -------------------
 
 
 >>>> PSPW Parallel Module - Car-Parrinello <<<<
          ****************************************************
          *                                                  *
          *     Car-Parrinello microcluster calculation      *
          *                                                  *
          *      [   extended Lagrangian molecular   ]       *
          *      [        dynamics simulation        ]       *
          *                                                  *
          *      [ NorthWest Chemistry implementation ]      *
          *                                                  *
          *            version #5.00   06/01/99              *
          *                                                  *
          *    This code was developed by Eric J. Bylaska,   *
          *    and was based upon algorithms and code        *
          *    developed by the group of Prof. John H. Weare *
          *                                                  *
          ****************************************************
     >>>  JOB STARTED       AT Thu May  8 23:53:09 2014  <<<
          ================ input data ========================

 input psi filename:./U3O8.movecs
 Generated initial wavefunctions velocities:
 U3O8.vmovecs                                      

 input vpsi filename:./U3O8.vmovecs

 number of processors used:        16
 processor grid           :  16 x   1
 parallel mapping         :   2d hilbert
 parallel mapping         :     balanced
 parallel io              :       off

 options:
      boundary conditions  = aperiodic   (version4)
      electron spin        = restricted
      exchange-correlation = LDA (Vosko et al) parameterization

 elements involved in the cluster:
      1: U   valence charge:  6.0000  lmax=  3
             comment    : Troullier-Martins pseudopotential
             pseudpotential type            :   0
             highest angular component      :   3
             local potential used           :   0
             number of non-local projections:  15
             aperiodic cutoff radius        :  1.000
             cutoff =   2.831   3.681   2.594   2.831
 
      2: O   valence charge:  6.0000  lmax=  2
             comment    : Parameterized (Chem.Phys.Lett., vol 322, page 447) Hamman psp
             pseudpotential type            :   0
             highest angular component      :   2
             local potential used           :   2
             number of non-local projections:   4
             aperiodic cutoff radius        :  1.000
             cutoff =   0.700   0.700   0.700
 

 total charge=   0.000

 atomic composition:
     U   :    3     O   :    8

 initial position of ions:
        1 U    (   -0.83863    0.65975   -1.58870 ) - atomic mass= 238.051 
        2 U    (    1.66582   -0.95743   -0.81369 ) - atomic mass= 238.051 
        3 U    (   -0.74114   -1.24334    0.31423 ) - atomic mass= 238.051 
        4 O    (   -0.15215   -0.24946    4.00473 ) - atomic mass=  15.995 
        5 O    (   -2.00153    3.55492    2.45972 ) - atomic mass=  15.995 
        6 O    (   -2.52192   -1.54303    3.44728 ) - atomic mass=  15.995 
        7 O    (   -0.00721    5.96441    5.27138 ) - atomic mass=  15.995 
        8 O    (    0.14968   -0.07791    1.63646 ) - atomic mass=  15.995 
        9 O    (   -2.79374    0.54469    3.08214 ) - atomic mass=  15.995 
       10 O    (    3.91288    3.34183    2.28940 ) - atomic mass=  15.995 
       11 O    (    2.42434    6.18629    1.82268 ) - atomic mass=  15.995 
        G.C.   (   -0.08214    1.47097    1.99324 )
        C.O.M. (    0.00553   -0.09902   -0.13417 )

 initial velocity of ions:
        1 U    (    0.00020    0.00004   -0.00005 )
        2 U    (   -0.00027    0.00013    0.00018 )
        3 U    (    0.00001   -0.00022   -0.00007 )
        4 O    (   -0.00005   -0.00008    0.00002 )
        5 O    (    0.00029   -0.00024   -0.00025 )
        6 O    (    0.00011    0.00028    0.00017 )
        7 O    (   -0.00019    0.00028   -0.00027 )
        8 O    (    0.00041   -0.00009   -0.00041 )
        9 O    (    0.00016    0.00036   -0.00003 )
       10 O    (    0.00014    0.00020   -0.00027 )
       11 O    (    0.00001   -0.00008    0.00015 )
        G.C.   (    0.00007    0.00005   -0.00008 )
        C.O.M. (    0.00000    0.00000    0.00000 )
        number of constraints =      0 ( DOF =     27 )

 number of electrons: spin up=    33 (  33 per task)  down=    33 (  33 per task) (fourier space)
 number of orbitals : spin up=    33 (  33 per task)  down=    33 (  33 per task) (fourier space)

 supercell:
      lattice:    a1=<  30.000   0.000   0.000 >
                  a2=<   0.000  30.000   0.000 >
                  a3=<   0.000   0.000  30.000 >
      reciprocal: b1=<   0.209   0.000   0.000 >
                  b2=<   0.000   0.209   0.000 >
                  b3=<   0.000   0.000   0.209 >
      volume :      27000.0
      density cutoff= 24.000  fft= 70x 70x 70(    75818 waves     4738 per task)
      wavefnc cutoff= 12.000  fft= 70x 70x 70(    26858 waves     1678 per task)

 technical parameters:
      translation constrained
      time step=      5.00     ficticious mass=     500.0
      cooling/heatting rates:  0.10000E+01 (psi)   0.10000E+01 (ion)
      maximum iterations =      3000 (   10 inner    300 outer )
      initial kinetic energy:  0.00000E+00 (psi)   0.64127E-01 (ion)
                                                   0.20397E-32 (c.o.m.)
      after scaling:           0.00000E+00 (psi)   0.64127E-01 (ion)
      increased energy:        0.00000E+00 (psi)   0.00000E+00 (ion)

 Nose-Hoover Simulation - Thermostat Parameters:
     thermostats initialized
     link =   1 Te = 1500.00 Qe = 0.503E+02 2*pi/we= 0.250E+03 Ee0= 0.794E-02
     link =   1 Tr = 1500.00 Qr = 0.406E+03 2*pi/wr= 0.250E+03 Er0= 0.641E-01



          ============ Car-Parrinello iteration ==============
     >>>  ITERATION STARTED AT Thu May  8 23:53:15 2014  <<<
    iter.         KE+Energy             Energy        KE_psi        KE_ion   Temperature
    ------------------------------------------------------------------------------------
      10  -0.1346723871E+03  -0.1349869638E+03   0.38608E-01   0.20981E+00       2877.49
      20  -0.1347416545E+03  -0.1354349507E+03   0.17326E-01   0.80726E-01       3187.70
      30  -0.1347851555E+03  -0.1357018394E+03   0.90496E-02   0.43407E-01       2558.04
      40  -0.1348208514E+03  -0.1359374513E+03   0.88514E-02   0.46657E-01       2186.06
      50  -0.1348577132E+03  -0.1361857057E+03   0.96475E-02   0.54762E-01       1992.19
      60  -0.1348957083E+03  -0.1364436244E+03   0.99719E-02   0.59277E-01       1886.82
      70  -0.1349330778E+03  -0.1366961363E+03   0.96015E-02   0.58890E-01       1816.68
      80  -0.1349685683E+03  -0.1369315803E+03   0.89343E-02   0.56442E-01       1758.69
      90  -0.1350018877E+03  -0.1371461123E+03   0.83197E-02   0.54383E-01       1707.38
     100  -0.1350332419E+03  -0.1373405575E+03   0.78651E-02   0.53511E-01       1662.93
     110  -0.1350628938E+03  -0.1375170481E+03   0.75434E-02   0.53784E-01       1626.02
     120  -0.1350909878E+03  -0.1376775746E+03   0.72892E-02   0.54930E-01       1596.71
     130  -0.1351175272E+03  -0.1378236799E+03   0.70419E-02   0.56631E-01       1574.52
     140  -0.1351424097E+03  -0.1379565814E+03   0.67639E-02   0.58551E-01       1558.55
     150  -0.1351654887E+03  -0.1380773705E+03   0.64502E-02   0.60339E-01       1547.59
     160  -0.1351866426E+03  -0.1381871399E+03   0.61263E-02   0.61682E-01       1540.27
     170  -0.1352058325E+03  -0.1382870237E+03   0.58348E-02   0.62436E-01       1535.20
     180  -0.1352231245E+03  -0.1383781891E+03   0.56154E-02   0.62720E-01       1531.31
     190  -0.1352386658E+03  -0.1384617777E+03   0.54886E-02   0.62810E-01       1528.02
     200  -0.1352526302E+03  -0.1385387882E+03   0.54509E-02   0.62914E-01       1525.15
     210  -0.1352651668E+03  -0.1386099596E+03   0.54812E-02   0.63052E-01       1522.70
     220  -0.1352763754E+03  -0.1386757415E+03   0.55533E-02   0.63143E-01       1520.59
     230  -0.1352863110E+03  -0.1387363751E+03   0.56482E-02   0.63151E-01       1518.71
     240  -0.1352949968E+03  -0.1387920258E+03   0.57609E-02   0.63141E-01       1516.98
     250  -0.1353024337E+03  -0.1388428835E+03   0.58980E-02   0.63193E-01       1515.41
     260  -0.1353085998E+03  -0.1388891926E+03   0.60710E-02   0.63321E-01       1514.04
     270  -0.1353134503E+03  -0.1389312343E+03   0.62910E-02   0.63460E-01       1512.89
     280  -0.1353169208E+03  -0.1389692910E+03   0.65633E-02   0.63536E-01       1511.92
     290  -0.1353189350E+03  -0.1390036031E+03   0.68791E-02   0.63518E-01       1511.03
     300  -0.1353194130E+03  -0.1390343223E+03   0.72042E-02   0.63416E-01       1510.15
     310  -0.1353182777E+03  -0.1390614795E+03   0.74816E-02   0.63258E-01       1509.23
     320  -0.1353154611E+03  -0.1390850087E+03   0.76617E-02   0.63093E-01       1508.24
     330  -0.1353109094E+03  -0.1391048431E+03   0.77446E-02   0.63003E-01       1507.22
     340  -0.1353045868E+03  -0.1391210252E+03   0.77820E-02   0.63059E-01       1506.25
     350  -0.1352964831E+03  -0.1391337530E+03   0.78315E-02   0.63246E-01       1505.42
     360  -0.1352866270E+03  -0.1391433436E+03   0.79154E-02   0.63444E-01       1504.77
     370  -0.1352750999E+03  -0.1391501634E+03   0.80208E-02   0.63524E-01       1504.25
     380  -0.1352620380E+03  -0.1391545629E+03   0.81235E-02   0.63456E-01       1503.75
     390  -0.1352476170E+03  -0.1391568362E+03   0.82080E-02   0.63328E-01       1503.21
     400  -0.1352320321E+03  -0.1391572142E+03   0.82683E-02   0.63241E-01       1502.63
     410  -0.1352154884E+03  -0.1391558972E+03   0.83007E-02   0.63234E-01       1502.06
     420  -0.1351981996E+03  -0.1391531134E+03   0.83020E-02   0.63303E-01       1501.53
     430  -0.1351803920E+03  -0.1391491751E+03   0.82750E-02   0.63451E-01       1501.09
     440  -0.1351623080E+03  -0.1391444972E+03   0.82272E-02   0.63688E-01       1500.77
     450  -0.1351442119E+03  -0.1391395630E+03   0.81631E-02   0.63971E-01       1500.60
     460  -0.1351263931E+03  -0.1391348562E+03   0.80814E-02   0.64202E-01       1500.58
     470  -0.1351091520E+03  -0.1391307986E+03   0.79825E-02   0.64313E-01       1500.64
     480  -0.1350927694E+03  -0.1391277294E+03   0.78793E-02   0.64347E-01       1500.73
     490  -0.1350774815E+03  -0.1391259337E+03   0.77936E-02   0.64413E-01       1500.83
     500  -0.1350634814E+03  -0.1391256944E+03   0.77438E-02   0.64558E-01       1500.98
     510  -0.1350509465E+03  -0.1391273376E+03   0.77378E-02   0.64714E-01       1501.20
     520  -0.1350400787E+03  -0.1391312733E+03   0.77781E-02   0.64798E-01       1501.47
     530  -0.1350311625E+03  -0.1391380906E+03   0.78683E-02   0.64851E-01       1501.74
     540  -0.1350246676E+03  -0.1391488377E+03   0.80083E-02   0.65124E-01       1502.08
     550  -0.1350214046E+03  -0.1391658001E+03   0.81899E-02   0.66236E-01       1502.67
     560  -0.1350225764E+03  -0.1391945840E+03   0.84191E-02   0.69859E-01       1504.20
     570  -0.1350285781E+03  -0.1392488178E+03   0.87689E-02   0.79963E-01       1508.44
     580  -0.1350304748E+03  -0.1393526477E+03   0.93371E-02   0.99000E-01       1518.69
     590  -0.1349784259E+03  -0.1395044551E+03   0.99143E-02   0.11192E+00       1535.58
     600  -0.1347489481E+03  -0.1395996022E+03   0.10315E-01   0.10906E+00       1553.22
     610  -0.1342104861E+03  -0.1395028948E+03   0.10746E-01   0.10721E+00       1568.98
     620  -0.1333329406E+03  -0.1391939351E+03   0.11021E-01   0.10868E+00       1584.39
     630  -0.1321892756E+03  -0.1387497450E+03   0.10975E-01   0.10922E+00       1599.72
     640  -0.1308745650E+03  -0.1382591775E+03   0.10766E-01   0.10861E+00       1614.52
     650  -0.1294500573E+03  -0.1377755777E+03   0.10522E-01   0.10760E+00       1628.55
     660  -0.1279433280E+03  -0.1373193636E+03   0.10257E-01   0.10647E+00       1641.77
     670  -0.1263671543E+03  -0.1368964820E+03   0.99921E-02   0.10529E+00       1654.20
     680  -0.1247320352E+03  -0.1365108599E+03   0.97764E-02   0.10406E+00       1665.84
     690  -0.1230512519E+03  -0.1361697102E+03   0.96521E-02   0.10281E+00       1676.73
     700  -0.1213419971E+03  -0.1358847173E+03   0.96328E-02   0.10153E+00       1686.88
     710  -0.1196242494E+03  -0.1356707855E+03   0.97078E-02   0.10025E+00       1696.32
     720  -0.1179185174E+03  -0.1355436783E+03   0.98529E-02   0.98976E-01       1705.09
     730  -0.1162434293E+03  -0.1355176032E+03   0.10038E-01   0.97715E-01       1713.22
     740  -0.1146136837E+03  -0.1356032192E+03   0.10233E-01   0.96491E-01       1720.73
     750  -0.1130385934E+03  -0.1358062298E+03   0.10409E-01   0.95325E-01       1727.67
     760  -0.1115214454E+03  -0.1361267289E+03   0.10550E-01   0.94227E-01       1734.08
     770  -0.1100598110E+03  -0.1365593841E+03   0.10646E-01   0.93197E-01       1740.00
     780  -0.1086466698E+03  -0.1370943122E+03   0.10700E-01   0.92220E-01       1745.47
     790  -0.1072719794E+03  -0.1377183308E+03   0.10718E-01   0.91265E-01       1750.52
     800  -0.1059243011E+03  -0.1384162893E+03   0.10707E-01   0.90296E-01       1755.16
     810  -0.1045922024E+03  -0.1391722874E+03   0.10672E-01   0.89280E-01       1759.40
     820  -0.1032652739E+03  -0.1399706430E+03   0.10609E-01   0.88196E-01       1763.24
     830  -0.1019346691E+03  -0.1407964980E+03   0.10508E-01   0.87033E-01       1766.67
     840  -0.1005931372E+03  -0.1416360160E+03   0.10356E-01   0.85794E-01       1769.68
     850  -0.9923463060E+02  -0.1424762529E+03   0.10144E-01   0.84491E-01       1772.27
     860  -0.9785367570E+02  -0.1433048950E+03   0.98707E-02   0.83147E-01       1774.44
     870  -0.9644475842E+02  -0.1441100887E+03   0.95447E-02   0.81789E-01       1776.20
     880  -0.9500191801E+02  -0.1448805049E+03   0.91807E-02   0.80454E-01       1777.56
     890  -0.9351858442E+02  -0.1456056041E+03   0.88005E-02   0.79179E-01       1778.54
     900  -0.9198753834E+02  -0.1462759023E+03   0.84287E-02   0.78001E-01       1779.19
     910  -0.9040084966E+02  -0.1468830292E+03   0.80898E-02   0.76954E-01       1779.53
     920  -0.8874977323E+02  -0.1474195379E+03   0.78049E-02   0.76063E-01       1779.63
     930  -0.8702473312E+02  -0.1478786304E+03   0.75907E-02   0.75342E-01       1779.52
     940  -0.8521560098E+02  -0.1482540720E+03   0.74596E-02   0.74794E-01       1779.26
     950  -0.8331245952E+02  -0.1485405595E+03   0.74195E-02   0.74413E-01       1778.89
     960  -0.8130696101E+02  -0.1487347024E+03   0.74723E-02   0.74185E-01       1778.46
     970  -0.7919419639E+02  -0.1488365521E+03   0.76112E-02   0.74091E-01       1778.00
     980  -0.7697461810E+02  -0.1488512222E+03   0.78182E-02   0.74111E-01       1777.54
     990  -0.7465513623E+02  -0.1487897398E+03   0.80656E-02   0.74225E-01       1777.11
    1000  -0.7224851462E+02  -0.1486683093E+03   0.83227E-02   0.74416E-01       1776.73
    1010  -0.6977102929E+02  -0.1485059955E+03   0.85642E-02   0.74669E-01       1776.40
    1020  -0.6723947156E+02  -0.1483218698E+03   0.87728E-02   0.74974E-01       1776.15
    1030  -0.6466880641E+02  -0.1481328146E+03   0.89374E-02   0.75323E-01       1775.97
    1040  -0.6207097356E+02  -0.1479523849E+03   0.90502E-02   0.75709E-01       1775.88
    1050  -0.5945453367E+02  -0.1477904255E+03   0.91081E-02   0.76123E-01       1775.89
    1060  -0.5682479143E+02  -0.1476531281E+03   0.91155E-02   0.76550E-01       1775.98
    1070  -0.5418427409E+02  -0.1475434505E+03   0.90833E-02   0.76971E-01       1776.17
    1080  -0.5153349230E+02  -0.1474618462E+03   0.90250E-02   0.77368E-01       1776.44
    1090  -0.4887177341E+02  -0.1474071027E+03   0.89511E-02   0.77722E-01       1776.79
    1100  -0.4619790174E+02  -0.1473770170E+03   0.88683E-02   0.78023E-01       1777.20
    1110  -0.4351042750E+02  -0.1473687584E+03   0.87807E-02   0.78261E-01       1777.66
    1120  -0.4080771447E+02  -0.1473789725E+03   0.86931E-02   0.78431E-01       1778.15
    1130  -0.3808792327E+02  -0.1474038101E+03   0.86112E-02   0.78528E-01       1778.66
    1140  -0.3534909094E+02  -0.1474390381E+03   0.85398E-02   0.78546E-01       1779.18
    1150  -0.3258932342E+02  -0.1474802571E+03   0.84800E-02   0.78486E-01       1779.67
    1160  -0.2980699593E+02  -0.1475231386E+03   0.84285E-02   0.78349E-01       1780.14
    1170  -0.2700084514E+02  -0.1475635794E+03   0.83802E-02   0.78143E-01       1780.57
    1180  -0.2416992910E+02  -0.1475977463E+03   0.83310E-02   0.77874E-01       1780.94
    1190  -0.2131353910E+02  -0.1476220751E+03   0.82803E-02   0.77550E-01       1781.25
    1200  -0.1843117988E+02  -0.1476333125E+03   0.82304E-02   0.77176E-01       1781.48
    1210  -0.1552267149E+02  -0.1476286419E+03   0.81848E-02   0.76758E-01       1781.64
    1220  -0.1258832970E+02  -0.1476058591E+03   0.81463E-02   0.76301E-01       1781.70
    1230  -0.9629128587E+01  -0.1475635216E+03   0.81161E-02   0.75807E-01       1781.67
    1240  -0.6646766225E+01  -0.1475010094E+03   0.80942E-02   0.75283E-01       1781.55
    1250  -0.3643613724E+01  -0.1474184796E+03   0.80797E-02   0.74732E-01       1781.33
    1260  -0.6225827928E+00  -0.1473167445E+03   0.80721E-02   0.74158E-01       1781.01
    1270   0.2413031608E+01  -0.1471971215E+03   0.80706E-02   0.73566E-01       1780.58
    1280   0.5459689324E+01  -0.1470612985E+03   0.80743E-02   0.72961E-01       1780.06
    1290   0.8513708112E+01  -0.1469112343E+03   0.80819E-02   0.72345E-01       1779.43
    1300   0.1157134191E+02  -0.1467490887E+03   0.80916E-02   0.71723E-01       1778.69
    1310   0.1462885544E+02  -0.1465771606E+03   0.81014E-02   0.71101E-01       1777.86
    1320   0.1768261003E+02  -0.1463978160E+03   0.81099E-02   0.70481E-01       1776.93
    1330   0.2072915828E+02  -0.1462134003E+03   0.81163E-02   0.69869E-01       1775.91
    1340   0.2376532879E+02  -0.1460261513E+03   0.81206E-02   0.69266E-01       1774.80
    1350   0.2678827623E+02  -0.1458381337E+03   0.81235E-02   0.68676E-01       1773.60
    1360   0.2979548129E+02  -0.1456512174E+03   0.81257E-02   0.68100E-01       1772.31
    1370   0.3278470489E+02  -0.1454671001E+03   0.81279E-02   0.67538E-01       1770.95
    1380   0.3575392387E+02  -0.1452873549E+03   0.81300E-02   0.66991E-01       1769.52
    1390   0.3870128764E+02  -0.1451134678E+03   0.81314E-02   0.66461E-01       1768.01
    1400   0.4162512603E+02  -0.1449468335E+03   0.81316E-02   0.65950E-01       1766.44
    1410   0.4452400601E+02  -0.1447887086E+03   0.81304E-02   0.65457E-01       1764.81
    1420   0.4739679614E+02  -0.1446401525E+03   0.81284E-02   0.64985E-01       1763.12
    1430   0.5024268348E+02  -0.1445020065E+03   0.81267E-02   0.64535E-01       1761.38
    1440   0.5306111912E+02  -0.1443749295E+03   0.81255E-02   0.64105E-01       1759.59
    1450   0.5585173285E+02  -0.1442594550E+03   0.81238E-02   0.63697E-01       1757.77
    1460   0.5861430319E+02  -0.1441559913E+03   0.81185E-02   0.63312E-01       1755.90
    1470   0.6134884507E+02  -0.1440647150E+03   0.81062E-02   0.62950E-01       1754.00
    1480   0.6405578347E+02  -0.1439853929E+03   0.80848E-02   0.62611E-01       1752.07
    1490   0.6673608715E+02  -0.1439172544E+03   0.80545E-02   0.62296E-01       1750.11
    1500   0.6939123651E+02  -0.1438590238E+03   0.80174E-02   0.62001E-01       1748.13
    1510   0.7202301563E+02  -0.1438091142E+03   0.79752E-02   0.61726E-01       1746.14
    1520   0.7463325595E+02  -0.1437658606E+03   0.79283E-02   0.61468E-01       1744.13
    1530   0.7722368614E+02  -0.1437276558E+03   0.78767E-02   0.61226E-01       1742.11
    1540   0.7979593193E+02  -0.1436929600E+03   0.78216E-02   0.60999E-01       1740.08
    1550   0.8235156793E+02  -0.1436602703E+03   0.77666E-02   0.60782E-01       1738.04
    1560   0.8489207882E+02  -0.1436281712E+03   0.77166E-02   0.60574E-01       1736.00
    1570   0.8741867378E+02  -0.1435954983E+03   0.76757E-02   0.60371E-01       1733.95
    1580   0.8993203960E+02  -0.1435615397E+03   0.76449E-02   0.60169E-01       1731.90
    1590   0.9243219761E+02  -0.1435261370E+03   0.76223E-02   0.59965E-01       1729.84
    1600   0.9491857725E+02  -0.1434896115E+03   0.76044E-02   0.59759E-01       1727.78
    1610   0.9739027012E+02  -0.1434525616E+03   0.75884E-02   0.59551E-01       1725.71
    1620   0.9984631113E+02  -0.1434156663E+03   0.75730E-02   0.59344E-01       1723.64
    1630   0.1022858425E+03  -0.1433795991E+03   0.75588E-02   0.59140E-01       1721.57
    1640   0.1047081280E+03  -0.1433450574E+03   0.75469E-02   0.58942E-01       1719.49
    1650   0.1071124902E+03  -0.1433128328E+03   0.75381E-02   0.58755E-01       1717.42
    1660   0.1094982611E+03  -0.1432838490E+03   0.75323E-02   0.58580E-01       1715.34
    1670   0.1118647842E+03  -0.1432591530E+03   0.75293E-02   0.58422E-01       1713.26
    1680   0.1142114360E+03  -0.1432398953E+03   0.75292E-02   0.58282E-01       1711.19
    1690   0.1165376175E+03  -0.1432273408E+03   0.75324E-02   0.58164E-01       1709.12
    1700   0.1188426995E+03  -0.1432229128E+03   0.75396E-02   0.58070E-01       1707.06
    1710   0.1211259565E+03  -0.1432282297E+03   0.75514E-02   0.58001E-01       1705.02
    1720   0.1233865427E+03  -0.1432450878E+03   0.75676E-02   0.57957E-01       1702.99
    1730   0.1256235353E+03  -0.1432753783E+03   0.75876E-02   0.57937E-01       1700.98
    1740   0.1278360287E+03  -0.1433209659E+03   0.76105E-02   0.57942E-01       1699.00
    1750   0.1300232364E+03  -0.1433835729E+03   0.76354E-02   0.57969E-01       1697.04
    1760   0.1321845665E+03  -0.1434646988E+03   0.76614E-02   0.58019E-01       1695.10
    1770   0.1343196606E+03  -0.1435655798E+03   0.76876E-02   0.58089E-01       1693.20
    1780   0.1364284022E+03  -0.1436871794E+03   0.77134E-02   0.58179E-01       1691.33
    1790   0.1385109061E+03  -0.1438301976E+03   0.77383E-02   0.58288E-01       1689.49
    1800   0.1405674942E+03  -0.1439950933E+03   0.77619E-02   0.58413E-01       1687.69
    1810   0.1425986561E+03  -0.1441821246E+03   0.77836E-02   0.58556E-01       1685.92
    1820   0.1446049902E+03  -0.1443914102E+03   0.78034E-02   0.58713E-01       1684.20
    1830   0.1465871229E+03  -0.1446230148E+03   0.78212E-02   0.58884E-01       1682.51
    1840   0.1485456123E+03  -0.1448770516E+03   0.78371E-02   0.59068E-01       1680.87
    1850   0.1504808475E+03  -0.1451537896E+03   0.78513E-02   0.59265E-01       1679.26
    1860   0.1523929609E+03  -0.1454537472E+03   0.78645E-02   0.59473E-01       1677.70
    1870   0.1542817679E+03  -0.1457777579E+03   0.78771E-02   0.59692E-01       1676.19
    1880   0.1561467480E+03  -0.1461269932E+03   0.78901E-02   0.59921E-01       1674.71
    1890   0.1579870772E+03  -0.1465029326E+03   0.79040E-02   0.60159E-01       1673.29
    1900   0.1598017209E+03  -0.1469072727E+03   0.79193E-02   0.60406E-01       1671.90
    1910   0.1615895900E+03  -0.1473417730E+03   0.79361E-02   0.60662E-01       1670.56
    1920   0.1633497565E+03  -0.1478080420E+03   0.79541E-02   0.60926E-01       1669.27
    1930   0.1650817096E+03  -0.1483072825E+03   0.79726E-02   0.61199E-01       1668.03
    1940   0.1667856201E+03  -0.1488400304E+03   0.79901E-02   0.61482E-01       1666.83
    1950   0.1684625630E+03  -0.1494059361E+03   0.80052E-02   0.61775E-01       1665.67
    1960   0.1701146465E+03  -0.1500036448E+03   0.80165E-02   0.62080E-01       1664.57
    1970   0.1717450083E+03  -0.1506308137E+03   0.80229E-02   0.62398E-01       1663.51
    1980   0.1733576752E+03  -0.1512842705E+03   0.80246E-02   0.62730E-01       1662.50
    1990   0.1749573242E+03  -0.1519602695E+03   0.80223E-02   0.63079E-01       1661.54
    2000   0.1765490087E+03  -0.1526547744E+03   0.80177E-02   0.63444E-01       1660.64
    2010   0.1781379141E+03  -0.1533636992E+03   0.80123E-02   0.63827E-01       1659.78
    2020   0.1797291802E+03  -0.1540830665E+03   0.80073E-02   0.64226E-01       1658.98
    2030   0.1813277984E+03  -0.1548090800E+03   0.80036E-02   0.64642E-01       1658.24
    2040   0.1829385700E+03  -0.1555381298E+03   0.80011E-02   0.65071E-01       1657.55
    2050   0.1845661110E+03  -0.1562667520E+03   0.80000E-02   0.65512E-01       1656.92
    2060   0.1862148861E+03  -0.1569915601E+03   0.80004E-02   0.65961E-01       1656.34
    2070   0.1878892597E+03  -0.1577091562E+03   0.80026E-02   0.66412E-01       1655.82
    2080   0.1895935474E+03  -0.1584160340E+03   0.80072E-02   0.66860E-01       1655.36
    2090   0.1913320464E+03  -0.1591084881E+03   0.80146E-02   0.67297E-01       1654.95
    2100   0.1931090211E+03  -0.1597825588E+03   0.80248E-02   0.67713E-01       1654.59
    2110   0.1949286263E+03  -0.1604340367E+03   0.80373E-02   0.68099E-01       1654.28
    2120   0.1967947614E+03  -0.1610585478E+03   0.80514E-02   0.68443E-01       1654.01
    2130   0.1987108604E+03  -0.1616517261E+03   0.80663E-02   0.68735E-01       1653.78
    2140   0.2006796334E+03  -0.1622094629E+03   0.80816E-02   0.68965E-01       1653.58
    2150   0.2027027845E+03  -0.1627282115E+03   0.80966E-02   0.69124E-01       1653.40
    2160   0.2047807436E+03  -0.1632053081E+03   0.81109E-02   0.69207E-01       1653.23
    2170   0.2069124685E+03  -0.1636392499E+03   0.81232E-02   0.69211E-01       1653.08
    2180   0.2090953889E+03  -0.1640298597E+03   0.81323E-02   0.69139E-01       1652.92
    2190   0.2113255466E+03  -0.1643782717E+03   0.81362E-02   0.68994E-01       1652.75
    2200   0.2135979418E+03  -0.1646867209E+03   0.81338E-02   0.68786E-01       1652.56
    2210   0.2159070174E+03  -0.1649581808E+03   0.81241E-02   0.68524E-01       1652.35
    2220   0.2182471675E+03  -0.1651959439E+03   0.81076E-02   0.68221E-01       1652.11
    2230   0.2206131553E+03  -0.1654032448E+03   0.80852E-02   0.67887E-01       1651.83
    2240   0.2230003788E+03  -0.1655829902E+03   0.80584E-02   0.67530E-01       1651.53
    2250   0.2254049766E+03  -0.1657376142E+03   0.80290E-02   0.67157E-01       1651.19
    2260   0.2278238063E+03  -0.1658690446E+03   0.79982E-02   0.66774E-01       1650.81
    2270   0.2302543442E+03  -0.1659787491E+03   0.79671E-02   0.66384E-01       1650.40
    2280   0.2326945525E+03  -0.1660678250E+03   0.79359E-02   0.65990E-01       1649.95
    2290   0.2351427492E+03  -0.1661371014E+03   0.79047E-02   0.65593E-01       1649.46
    2300   0.2375975032E+03  -0.1661872330E+03   0.78737E-02   0.65196E-01       1648.94
    2310   0.2400575545E+03  -0.1662187781E+03   0.78430E-02   0.64799E-01       1648.38
    2320   0.2425217539E+03  -0.1662322652E+03   0.78131E-02   0.64405E-01       1647.79
    2330   0.2449890051E+03  -0.1662282566E+03   0.77850E-02   0.64015E-01       1647.16
    2340   0.2474582056E+03  -0.1662074122E+03   0.77594E-02   0.63631E-01       1646.50
    2350   0.2499281933E+03  -0.1661705457E+03   0.77366E-02   0.63254E-01       1645.80
    2360   0.2523977180E+03  -0.1661186533E+03   0.77166E-02   0.62887E-01       1645.08
    2370   0.2548654578E+03  -0.1660529006E+03   0.76988E-02   0.62531E-01       1644.33
    2380   0.2573300768E+03  -0.1659745693E+03   0.76825E-02   0.62189E-01       1643.54
    2390   0.2597902991E+03  -0.1658849870E+03   0.76675E-02   0.61863E-01       1642.74
    2400   0.2622449588E+03  -0.1657854794E+03   0.76540E-02   0.61555E-01       1641.90
    2410   0.2646929977E+03  -0.1656773661E+03   0.76426E-02   0.61267E-01       1641.05
    2420   0.2671334143E+03  -0.1655619974E+03   0.76342E-02   0.60999E-01       1640.18
    2430   0.2695651990E+03  -0.1654408002E+03   0.76293E-02   0.60752E-01       1639.29
    2440   0.2719872919E+03  -0.1653152998E+03   0.76280E-02   0.60525E-01       1638.38
    2450   0.2743985841E+03  -0.1651871025E+03   0.76302E-02   0.60319E-01       1637.46
    2460   0.2767979491E+03  -0.1650578516E+03   0.76359E-02   0.60133E-01       1636.53
    2470   0.2791842779E+03  -0.1649291834E+03   0.76451E-02   0.59966E-01       1635.59
    2480   0.2815564879E+03  -0.1648027068E+03   0.76578E-02   0.59818E-01       1634.64
    2490   0.2839135015E+03  -0.1646800118E+03   0.76738E-02   0.59686E-01       1633.69
    2500   0.2862542030E+03  -0.1645626983E+03   0.76927E-02   0.59570E-01       1632.74
    2510   0.2885773910E+03  -0.1644524085E+03   0.77137E-02   0.59469E-01       1631.78
    2520   0.2908817367E+03  -0.1643508588E+03   0.77359E-02   0.59379E-01       1630.82
    2530   0.2931657434E+03  -0.1642598742E+03   0.77589E-02   0.59299E-01       1629.86
    2540   0.2954276935E+03  -0.1641814397E+03   0.77825E-02   0.59228E-01       1628.90
    2550   0.2976655701E+03  -0.1641177773E+03   0.78072E-02   0.59163E-01       1627.94
    2560   0.2998769608E+03  -0.1640714372E+03   0.78336E-02   0.59101E-01       1626.99
    2570   0.3020589818E+03  -0.1640453641E+03   0.78619E-02   0.59040E-01       1626.03
    2580   0.3042082885E+03  -0.1640428730E+03   0.78913E-02   0.58976E-01       1625.08
    2590   0.3063212503E+03  -0.1640674694E+03   0.79201E-02   0.58909E-01       1624.13
    2600   0.3083943330E+03  -0.1641224806E+03   0.79460E-02   0.58838E-01       1623.18
    2610   0.3104246674E+03  -0.1642105271E+03   0.79671E-02   0.58764E-01       1622.23
    2620   0.3124107034E+03  -0.1643329313E+03   0.79822E-02   0.58688E-01       1621.28
    2630   0.3143527760E+03  -0.1644892272E+03   0.79916E-02   0.58616E-01       1620.33
    2640   0.3162533492E+03  -0.1646769895E+03   0.79974E-02   0.58551E-01       1619.38
    2650   0.3181167234E+03  -0.1648921718E+03   0.80030E-02   0.58499E-01       1618.44
    2660   0.3199481808E+03  -0.1651299460E+03   0.80129E-02   0.58462E-01       1617.50
    2670   0.3217528861E+03  -0.1653857152E+03   0.80298E-02   0.58440E-01       1616.56
    2680   0.3235350746E+03  -0.1656557950E+03   0.80544E-02   0.58428E-01       1615.63
    2690   0.3252979172E+03  -0.1659374326E+03   0.80850E-02   0.58422E-01       1614.70
    2700   0.3270440207E+03  -0.1662282366E+03   0.81179E-02   0.58417E-01       1613.78
    2710   0.3287761907E+03  -0.1665253760E+03   0.81485E-02   0.58407E-01       1612.87
    2720   0.3304980984E+03  -0.1668248762E+03   0.81712E-02   0.58386E-01       1611.96
    2730   0.3322146840E+03  -0.1671211789E+03   0.81812E-02   0.58349E-01       1611.06
    2740   0.3339322526E+03  -0.1674070402E+03   0.81765E-02   0.58288E-01       1610.16
    2750   0.3356582340E+03  -0.1676738194E+03   0.81584E-02   0.58196E-01       1609.26
    2760   0.3374006197E+03  -0.1679121529E+03   0.81315E-02   0.58070E-01       1608.35
    2770   0.3391671651E+03  -0.1681129118E+03   0.81025E-02   0.57910E-01       1607.45
    2780   0.3409644887E+03  -0.1682682785E+03   0.80788E-02   0.57720E-01       1606.53
    2790   0.3427972188E+03  -0.1683727391E+03   0.80663E-02   0.57509E-01       1605.60
    2800   0.3446673654E+03  -0.1684237689E+03   0.80675E-02   0.57287E-01       1604.66
    2810   0.3465741139E+03  -0.1684220023E+03   0.80812E-02   0.57063E-01       1603.71
    2820   0.3485141613E+03  -0.1683708007E+03   0.81031E-02   0.56846E-01       1602.74
    2830   0.3504825230E+03  -0.1682753488E+03   0.81285E-02   0.56641E-01       1601.77
    2840   0.3524735210E+03  -0.1681416036E+03   0.81541E-02   0.56451E-01       1600.79
    2850   0.3544816048E+03  -0.1679754451E+03   0.81784E-02   0.56278E-01       1599.80
    2860   0.3565018034E+03  -0.1677822110E+03   0.82010E-02   0.56122E-01       1598.80
    2870   0.3585298293E+03  -0.1675665813E+03   0.82217E-02   0.55986E-01       1597.79
    2880   0.3605619893E+03  -0.1673326595E+03   0.82399E-02   0.55868E-01       1596.79
    2890   0.3625950597E+03  -0.1670840968E+03   0.82547E-02   0.55769E-01       1595.78
    2900   0.3646262129E+03  -0.1668241702E+03   0.82652E-02   0.55691E-01       1594.77
    2910   0.3666530146E+03  -0.1665557900E+03   0.82715E-02   0.55635E-01       1593.77
    2920   0.3686734555E+03  -0.1662814650E+03   0.82743E-02   0.55599E-01       1592.76
    2930   0.3706859664E+03  -0.1660032737E+03   0.82751E-02   0.55584E-01       1591.77
    2940   0.3726893760E+03  -0.1657228888E+03   0.82754E-02   0.55586E-01       1590.78
    2950   0.3746828068E+03  -0.1654416627E+03   0.82761E-02   0.55604E-01       1589.79
    2960   0.3766655447E+03  -0.1651607489E+03   0.82773E-02   0.55636E-01       1588.82
    2970   0.3786369345E+03  -0.1648812074E+03   0.82779E-02   0.55681E-01       1587.85
    2980   0.3805963376E+03  -0.1646040577E+03   0.82770E-02   0.55739E-01       1586.90
    2990   0.3825431560E+03  -0.1643302676E+03   0.82737E-02   0.55810E-01       1585.95
    3000   0.3844768935E+03  -0.1640606996E+03   0.82681E-02   0.55894E-01       1585.02
 *** arived at the Maximum iteration.   terminated.
     >>>  ITERATION ENDED   AT Fri May  9 00:03:17 2014  <<<


 Elapsed time of simulation was 362.833 fs



          =============  summary of results  =================

 final position of ions:
        1 U    (   -1.44956    0.96532   -1.56528 ) - atomic mass= 238.051 
        2 U    (    1.85967   -1.29996   -0.54893 ) - atomic mass= 238.051 
        3 U    (   -0.44697   -1.01532    0.22754 ) - atomic mass= 238.051 
        4 O    (    2.74523   -7.31653   -0.88157 ) - atomic mass=  15.995 
        5 O    (    2.35373    5.83028   -4.12979 ) - atomic mass=  15.995 
        6 O    (   -6.51059   -1.83511   -3.20138 ) - atomic mass=  15.995 
        7 O    (    4.99359    4.53479    0.74559 ) - atomic mass=  15.995 
        8 O    (   -7.64226    8.07675    3.63182 ) - atomic mass=  15.995 
        9 O    (    1.20567    2.94061   11.42844 ) - atomic mass=  15.995 
       10 O    (   -1.37330   -0.37063    6.60310 ) - atomic mass=  15.995 
       11 O    (    5.06765    3.01807    6.81892 ) - atomic mass=  15.995 
        G.C.   (    0.07299    1.22984    1.73895 )
        C.O.M. (    0.00553   -0.09902   -0.13417 )

 final velocity of ions:
        1 U    (   -0.00001    0.00001    0.00000 )
        2 U    (    0.00000    0.00001    0.00001 )
        3 U    (    0.00000   -0.00001    0.00001 )
        4 O    (   -0.00018   -0.00049   -0.00040 )
        5 O    (    0.00032    0.00005   -0.00036 )
        6 O    (   -0.00034    0.00007   -0.00063 )
        7 O    (    0.00066    0.00011   -0.00022 )
        8 O    (   -0.00035    0.00056    0.00010 )
        9 O    (    0.00033    0.00026    0.00055 )
       10 O    (   -0.00075   -0.00034    0.00049 )
       11 O    (    0.00036   -0.00039    0.00011 )
        G.C.   (    0.00000   -0.00002   -0.00003 )
        C.O.M. (    0.00000    0.00000    0.00000 )
        number of constraints =      0 ( DOF =     27 )
 
 number of electrons: spin up=   33.00000  down=   33.00000 (real space)

 total     energy    :  -0.1640606996E+03 (   -0.14915E+02/ion)
 total orbital energy:  -0.3636649246E+02 (   -0.11020E+01/electron)
 hartree   energy    :   0.3672708253E+03 (    0.11129E+02/electron)
 exc-corr  energy    :  -0.2902300865E+02 (   -0.87949E+00/electron)
 ion-ion   energy    :   0.2306034919E+03 (    0.20964E+02/ion)

 Kinetic energy (elc)    :   0.8268115029E-02 (    0.25055E-03/elc)
 Kinetic energy (ion)    :   0.5589350264E-01 (    0.50812E-02/ion)
 thermostat energy (elc) :   0.3512158886E+02 (    0.10643E+01/elc)
 thermostat energy (ion) :   0.5133518427E+03 (    0.46668E+02/ion)

 final kinetic energy:   0.82681E-02 (psi)   0.55894E-01 (ion)
                                             0.53030E-27 (c.o.m.)
 Temperature :           0.0 K (elc)
 Temperature :        1585.0 K (ion)
             :           0.0 K (c.o.m.)

 Vaverage  Eaverage :      -0.1500175770E+03  -0.1499414996E+03
 Vvariance Evariance:       0.1223454130E+03   0.1224725811E+03
 Cv - f*kb/(2*nion) :       0.1397995788E+01

 orbital energies:
    -0.2140173E+00 (  -5.824eV)
    -0.2278989E+00 (  -6.201eV)
    -0.2466892E+00 (  -6.713eV)
    -0.2496032E+00 (  -6.792eV)
    -0.2569044E+00 (  -6.991eV)
    -0.2627469E+00 (  -7.150eV)
    -0.2644684E+00 (  -7.197eV)
    -0.2696381E+00 (  -7.337eV)
    -0.2752730E+00 (  -7.491eV)
    -0.2836997E+00 (  -7.720eV)
    -0.2918887E+00 (  -7.943eV)
    -0.3058992E+00 (  -8.324eV)
    -0.3072634E+00 (  -8.361eV)
    -0.3138377E+00 (  -8.540eV)
    -0.3206119E+00 (  -8.724eV)
    -0.3229251E+00 (  -8.787eV)
    -0.3308080E+00 (  -9.002eV)
    -0.3498826E+00 (  -9.521eV)
    -0.3784047E+00 ( -10.297eV)
    -0.3925910E+00 ( -10.683eV)
    -0.4531544E+00 ( -12.331eV)
    -0.4709798E+00 ( -12.816eV)
    -0.5131963E+00 ( -13.965eV)
    -0.5304677E+00 ( -14.435eV)
    -0.5629078E+00 ( -15.318eV)
    -0.1013419E+01 ( -27.577eV)
    -0.1043336E+01 ( -28.391eV)
    -0.1114300E+01 ( -30.322eV)
    -0.1126083E+01 ( -30.643eV)
    -0.1296843E+01 ( -35.289eV)
    -0.1334625E+01 ( -36.317eV)
    -0.1413256E+01 ( -38.457eV)
    -0.1445626E+01 ( -39.338eV)

 Total PSPW energy   :  -0.1640606996E+03


=== Spin Contamination ===
 
 <Sexact^2> =   0.000000000000000E+000
 <S^2>      =   0.000000000000000E+000
 


== Center of Charge ==

spin up     (   -0.2973,    1.1666,    1.8048 )
spin down   (   -0.2973,    1.1666,    1.8048 )
     total  (   -0.2973,    1.1666,    1.8048 )
ionic       (    0.0730,    1.2298,    1.7390 )
crystal     (   -0.0123,   -0.0218,   -0.0216 )


== Crystal Dipole ==

mu   =  (   18.8110,  -78.4343, -120.5430 ) au
|mu| =   145.0394 au,     368.6320 Debye


== Molecular Dipole wrt Center of Mass ==

mu   =  (   24.4392,    4.1724,   -4.3448 ) au
|mu| =    25.1706 au,      63.9736 Debye

 output psi filename:./U3O8.movecs

 output vpsi filename:./U3O8.vmovecs
 
 ================================
 ==== CPMD Property Analysis ====
 ================================
 
 CPMD property analysis is off. To turn analysis on set cpmd_properties, i.e.
 nwpw
    cpmd_properties on
 end
 
 
 -----------------
 cputime in seconds
 prologue    :    6.30103302101953     
 main loop   :    601.772234915687     
 epilogue    :    1.09015607833862     
 total       :    609.163424015045     
 cputime/step:   0.200590744971896     
 


Time spent doing                        total          step       percent
  total time                 :   0.609179E+03  0.203060E+00       100.0 %
  i/o time                   :   0.116621E+01  0.388737E-03         0.2 %
  FFTs                       :   0.713825E+02  0.237942E-01        11.7 %
  dot products               :   0.845793E+02  0.281931E-01        13.9 %
  geodesic                   :   0.558052E+00  0.186017E-03         0.1 %
  ffm_dgemm                  :   0.711324E+01  0.237108E-02         1.2 %
  fmf_dgemm                  :   0.173984E+01  0.579947E-03         0.3 %
  m_diagonalize              :   0.246048E-03  0.820160E-07         0.0 %
  exchange correlation       :   0.435337E+01  0.145112E-02         0.7 %
  local pseudopotentials     :   0.235376E+03  0.784588E-01        38.6 %
  non-local pseudopotentials :   0.672052E+02  0.224017E-01        11.0 %
  structure factors          :   0.739606E+00  0.246535E-03         0.1 %
  phase factors              :   0.925355E-01  0.308452E-04         0.0 %
  masking and packing        :   0.134479E+02  0.448263E-02         2.2 %
  queue fft                  :   0.187283E+03  0.624278E-01        30.7 %
  queue fft (serial)         :   0.108665E+03  0.362216E-01        17.8 %
  queue fft (message passing):   0.749780E+02  0.249927E-01        12.3 %
     >>>  JOB COMPLETED     AT Fri May  9 00:03:18 2014  <<<

 Task  times  cpu:      601.5s     wall:      609.2s
 
 
                                NWChem Input Module
                                -------------------
 
 
          ****************************************************
          *                                                  *
          *               NWPW PSPW Calculation              *
          *                                                  *
          *  [ (Grassman/Stiefel manifold implementation) ]  *
          *                                                  *
          *      [ NorthWest Chemistry implementation ]      *
          *                                                  *
          *            version #5.10   06/12/02              *
          *                                                  *
          *    This code was developed by Eric J. Bylaska,   *
          *    and was based upon algorithms and code        *
          *    developed by the group of Prof. John H. Weare *
          *                                                  *
          ****************************************************
     >>>  JOB STARTED       AT Fri May  9 00:03:18 2014  <<<
          ================ input data ========================

 input psi filename:./U3O8.movecs

 number of processors used:        16
 processor grid           :  16 x   1
 parallel mapping         :2d hilbert
 parallel mapping         :  balanced
 parallel io              :       off

 options:
      boundary conditions  = aperiodic   (version4)
      electron spin        = restricted
      exchange-correlation = LDA (Vosko et al) parameterization

 elements involved in the cluster:
      1: U   valence charge:  6.0000  lmax=  3
             comment    : Troullier-Martins pseudopotential
             pseudpotential type            :   0
             highest angular component      :   3
             local potential used           :   0
             number of non-local projections:  15
             aperiodic cutoff radius        :  1.000
             cutoff =   2.831   3.681   2.594   2.831
 
      2: O   valence charge:  6.0000  lmax=  2
             comment    : Parameterized (Chem.Phys.Lett., vol 322, page 447) Hamman psp
             pseudpotential type            :   0
             highest angular component      :   2
             local potential used           :   2
             number of non-local projections:   4
             aperiodic cutoff radius        :  1.000
             cutoff =   0.700   0.700   0.700
 

 total charge:   0.000

 atomic composition:
     U   :    3     O   :    8

 number of electrons: spin up=    33 (  33 per task)  down=    33 (  33 per task) (fourier space)
 number of orbitals : spin up=    33 (  33 per task)  down=    33 (  33 per task) (fourier space)

 supercell:
      cell_name:  cell_default                                      
      lattice:    a1=<  30.000   0.000   0.000 >
                  a2=<   0.000  30.000   0.000 >
                  a3=<   0.000   0.000  30.000 >
      reciprocal: b1=<   0.209   0.000   0.000 >
                  b2=<   0.000   0.209   0.000 >
                  b3=<   0.000   0.000   0.209 >
      lattice:    a=      30.000 b=     30.000 c=      30.000
                  alpha=  90.000 beta=  90.000 gamma=  90.000
                  omega=     27000.0

      density cutoff= 24.000  fft= 70x 70x 70(    75818 waves     4738 per task)
      wavefnc cutoff= 12.000  fft= 70x 70x 70(    26858 waves     1678 per task)

 technical parameters:
      time step=      5.80     ficticious mass=  400000.0
      tolerance=.100E-06 (energy)   0.100E-06 (density)
      maximum iterations =      1000 (   10 inner    100 outer )





== Energy Calculation ==


          ============ Grassmann lmbfgs iteration ============
     >>>  ITERATION STARTED AT Fri May  9 00:03:24 2014  <<<
    iter.           Energy         DeltaE       DeltaRho 
    ------------------------------------------------------
      10   -0.1363392307E+03   -0.61958E+00    0.99343E+01
     -  10 steepest descent iterations performed
      20   -0.1382092640E+03   -0.35310E-01    0.11668E+00
     -  10 steepest descent iterations performed
      30   -0.1383583001E+03   -0.72636E-02    0.11377E-01
      40   -0.1384069002E+03   -0.28920E-02    0.19369E-01
      50   -0.1384259841E+03   -0.14328E-02    0.10449E-01
      60   -0.1384338120E+03   -0.55056E-03    0.24050E-02
      70   -0.1384377668E+03   -0.24442E-03    0.16303E-02
      80   -0.1384395642E+03   -0.13816E-03    0.63998E-03
      90   -0.1384408135E+03   -0.11837E-03    0.55814E-03
     100   -0.1384418156E+03   -0.98171E-04    0.32534E-03
     110   -0.1384428960E+03   -0.11179E-03    0.69636E-03
     -  10 steepest descent iterations performed
     120   -0.1384437089E+03   -0.70156E-04    0.10071E-03
     130   -0.1384442948E+03   -0.55348E-04    0.16001E-03
     140   -0.1384448952E+03   -0.62613E-04    0.13186E-03
     -  10 steepest descent iterations performed
     150   -0.1384452545E+03   -0.35374E-04    0.40585E-04
     160   -0.1384456301E+03   -0.39278E-04    0.12691E-03
     -  10 steepest descent iterations performed
     170   -0.1384458533E+03   -0.23620E-04    0.29805E-04
     180   -0.1384461565E+03   -0.26264E-04    0.12744E-03
     -  10 steepest descent iterations performed
     190   -0.1384463905E+03   -0.22902E-04    0.34794E-04
     200   -0.1384465987E+03   -0.21919E-04    0.58000E-04
     210   -0.1384471779E+03   -0.39440E-04    0.17927E-03
     -  10 steepest descent iterations performed
     220   -0.1384475859E+03   -0.30653E-04    0.89194E-04
     230   -0.1384477250E+03   -0.15149E-04    0.41954E-04
     240   -0.1384478565E+03   -0.13153E-04    0.15979E-04
     250   -0.1384485583E+03   -0.42201E-04    0.29772E-03
     -  10 steepest descent iterations performed
     260   -0.1384488284E+03   -0.19164E-04    0.52843E-04
     270   -0.1384489491E+03   -0.99405E-05    0.56761E-04
     280   -0.1384490217E+03   -0.90665E-05    0.14001E-04
     290   -0.1384491731E+03   -0.13659E-04    0.46348E-04
     -  10 steepest descent iterations performed
     300   -0.1384492708E+03   -0.88473E-05    0.12874E-04
     310   -0.1384493283E+03   -0.61944E-05    0.14912E-04
     320   -0.1384493911E+03   -0.51580E-05    0.12700E-04
     330   -0.1384494866E+03   -0.75378E-05    0.28920E-04
     -  10 steepest descent iterations performed
     340   -0.1384495552E+03   -0.59365E-05    0.93871E-05
     350   -0.1384496024E+03   -0.44230E-05    0.16612E-04
     360   -0.1384496375E+03   -0.40008E-05    0.72859E-05
     370   -0.1384496862E+03   -0.44579E-05    0.11101E-04
     -  10 steepest descent iterations performed
     380   -0.1384497250E+03   -0.35464E-05    0.46549E-05
     390   -0.1384497517E+03   -0.28805E-05    0.66599E-05
     400   -0.1384497825E+03   -0.24787E-05    0.67343E-05
     410   -0.1384498188E+03   -0.29009E-05    0.76288E-05
     -  10 steepest descent iterations performed
     420   -0.1384498486E+03   -0.25991E-05    0.31487E-05
     430   -0.1384498718E+03   -0.22165E-05    0.67120E-05
     440   -0.1384498897E+03   -0.19678E-05    0.38006E-05
     450   -0.1384499111E+03   -0.20097E-05    0.36190E-05
     -  10 steepest descent iterations performed
     460   -0.1384499295E+03   -0.16803E-05    0.18621E-05
     470   -0.1384499435E+03   -0.14804E-05    0.33516E-05
     480   -0.1384499597E+03   -0.13103E-05    0.36811E-05
     490   -0.1384499767E+03   -0.14392E-05    0.27472E-05
     -  10 steepest descent iterations performed
     500   -0.1384499915E+03   -0.13030E-05    0.13167E-05
     510   -0.1384500040E+03   -0.11817E-05    0.32829E-05
     520   -0.1384500137E+03   -0.10502E-05    0.20737E-05
     530   -0.1384500243E+03   -0.10441E-05    0.13746E-05
     540   -0.1384500830E+03   -0.45489E-05    0.15136E-04
     -  10 steepest descent iterations performed
     550   -0.1384501051E+03   -0.20535E-05    0.38467E-05
     560   -0.1384501150E+03   -0.10125E-05    0.37290E-05
     570   -0.1384501204E+03   -0.54981E-06    0.20927E-05
     580   -0.1384501228E+03   -0.19471E-06    0.60425E-06
     590   -0.1384501281E+03   -0.53784E-06    0.17086E-05
     -  10 steepest descent iterations performed
     600   -0.1384501319E+03   -0.24937E-06    0.41288E-06
     610   -0.1384501346E+03   -0.30478E-06    0.93969E-06
     -  10 steepest descent iterations performed
     620   -0.1384501364E+03   -0.17325E-06    0.18082E-06
     630   -0.1384501385E+03   -0.27679E-06    0.47795E-06
     -  10 steepest descent iterations performed
     640   -0.1384501406E+03   -0.19048E-06    0.23461E-06
     650   -0.1384501422E+03   -0.17713E-06    0.31521E-06
     660   -0.1384501682E+03   -0.25870E-05    0.11156E-04
     -  10 steepest descent iterations performed
     670   -0.1384501901E+03   -0.10769E-05    0.67879E-05
     680   -0.1384501921E+03   -0.12790E-06    0.53789E-06
     690   -0.1384501942E+03   -0.26334E-06    0.83076E-06
     -  10 steepest descent iterations performed
     700   -0.1384501962E+03   -0.19156E-06    0.34072E-06
     710   -0.1384501981E+03   -0.30195E-06    0.65152E-06
     -  10 steepest descent iterations performed
     720   -0.1384502000E+03   -0.19781E-06    0.25143E-06
     730   -0.1384502020E+03   -0.19150E-06    0.70147E-06
     740   -0.1384502255E+03   -0.25267E-05    0.17448E-04
     -  10 steepest descent iterations performed
     750   -0.1384502487E+03   -0.85345E-06    0.92926E-05
     760   -0.1384502519E+03   -0.24065E-06    0.15285E-05
     770   -0.1384502542E+03   -0.22392E-06    0.96035E-06
     780   -0.1384502684E+03   -0.38542E-05    0.96928E-05
     -  10 steepest descent iterations performed
     790   -0.1384502803E+03   -0.74471E-06    0.28792E-05
     800   -0.1384502848E+03   -0.22943E-06    0.35543E-05
     810   -0.1384502876E+03   -0.41316E-06    0.11751E-05
     -  10 steepest descent iterations performed
     820   -0.1384502898E+03   -0.19749E-06    0.31564E-06
     830   -0.1384502940E+03   -0.56888E-06    0.33518E-05
     -  10 steepest descent iterations performed
     840   -0.1384502971E+03   -0.36470E-06    0.73534E-06
     850   -0.1384503000E+03   -0.27764E-06    0.20404E-05
     860   -0.1384503068E+03   -0.70525E-06    0.36972E-05
     -  10 steepest descent iterations performed
     870   -0.1384503133E+03   -0.61745E-06    0.25424E-05
     880   -0.1384503166E+03   -0.34196E-06    0.25739E-05
     890   -0.1384503196E+03   -0.34810E-06    0.73211E-06
     -  10 steepest descent iterations performed
     900   -0.1384503225E+03   -0.31521E-06    0.67014E-06
     910   -0.1384503260E+03   -0.36789E-06    0.28025E-05
     -  10 steepest descent iterations performed
     920   -0.1384503284E+03   -0.31486E-06    0.42841E-06
     930   -0.1384503321E+03   -0.40191E-06    0.25668E-05
     -  10 steepest descent iterations performed
     940   -0.1384503350E+03   -0.30313E-06    0.55377E-06
     950   -0.1384503381E+03   -0.34634E-06    0.19632E-05
     -  10 steepest descent iterations performed
     960   -0.1384503405E+03   -0.25634E-06    0.29197E-06
     970   -0.1384503439E+03   -0.42486E-06    0.17000E-05
     -  10 steepest descent iterations performed
     980   -0.1384503468E+03   -0.24366E-06    0.35679E-06
     990   -0.1384503496E+03   -0.36034E-06    0.12726E-05
     -  10 steepest descent iterations performed
    1000   -0.1384503520E+03   -0.21213E-06    0.19177E-06
 *** arived at the Maximum iteration.  terminated
     >>>  ITERATION ENDED   AT Fri May  9 00:08:24 2014  <<<


==  Summary Of Results  ==
 
 number of electrons: spin up=   33.00000  down=   33.00000 (real space)

 total     energy    :  -0.1384503520E+03 (   -0.12586E+02/ion)
 total orbital energy:  -0.3120865352E+02 (   -0.94572E+00/electron)
 hartree   energy    :   0.3472324458E+03 (    0.10522E+02/electron)
 exc-corr  energy    :  -0.3032426306E+02 (   -0.91892E+00/electron)
 ion-ion   energy    :   0.2306034919E+03 (    0.20964E+02/ion)

 kinetic (planewave) :   0.1050803617E+03 (    0.31843E+01/electron)
 V_local (planewave) :  -0.7448447823E+03 (   -0.22571E+02/electron)
 V_nl    (planewave) :  -0.4619760611E+02 (   -0.13999E+01/electron)
 V_Coul  (planewave) :   0.6944648917E+03 (    0.21044E+02/electron)
 V_xc.   (planewave) :  -0.3971151851E+02 (   -0.12034E+01/electron)
 Virial Coefficient  :  -0.1296997964E+01

 orbital energies:
    -0.2749655E+00 (  -7.482eV)
    -0.2751068E+00 (  -7.486eV)
    -0.2753343E+00 (  -7.492eV)
    -0.2757757E+00 (  -7.504eV)
    -0.2761486E+00 (  -7.514eV)
    -0.2770207E+00 (  -7.538eV)
    -0.2775601E+00 (  -7.553eV)
    -0.2781949E+00 (  -7.570eV)
    -0.2789632E+00 (  -7.591eV)
    -0.2811796E+00 (  -7.651eV)
    -0.2831237E+00 (  -7.704eV)
    -0.2859022E+00 (  -7.780eV)
    -0.2872427E+00 (  -7.816eV)
    -0.2912047E+00 (  -7.924eV)
    -0.2949002E+00 (  -8.025eV)
    -0.2969568E+00 (  -8.081eV)
    -0.3012526E+00 (  -8.198eV)
    -0.3047591E+00 (  -8.293eV)
    -0.3129690E+00 (  -8.516eV)
    -0.3282433E+00 (  -8.932eV)
    -0.3539978E+00 (  -9.633eV)
    -0.3857716E+00 ( -10.497eV)
    -0.4289471E+00 ( -11.672eV)
    -0.4802902E+00 ( -13.069eV)
    -0.4828503E+00 ( -13.139eV)
    -0.9550582E+00 ( -25.989eV)
    -0.9595997E+00 ( -26.112eV)
    -0.9621945E+00 ( -26.183eV)
    -0.9625992E+00 ( -26.194eV)
    -0.9642641E+00 ( -26.239eV)
    -0.9688117E+00 ( -26.363eV)
    -0.9703438E+00 ( -26.405eV)
    -0.9727948E+00 ( -26.471eV)

 Total PSPW energy   :  -0.1384503520E+03


=== Spin Contamination ===
 
 <Sexact^2> =   0.000000000000000E+000
 <S^2>      =   0.000000000000000E+000
 


== Center of Charge ==

spin up     (    0.0674,    1.2511,    1.7762 )
spin down   (    0.0674,    1.2511,    1.7762 )
     total  (    0.0674,    1.2511,    1.7762 )
ionic       (    0.0730,    1.2298,    1.7390 )
crystal     (   -0.0123,   -0.0218,   -0.0216 )


== Crystal Dipole ==

mu   =  (   -5.2589,  -84.0078, -118.6565 ) au
|mu| =   145.4796 au,     369.7511 Debye


== Molecular Dipole wrt Center of Mass ==

mu   =  (    0.3693,   -1.4011,   -2.4582 ) au
|mu| =     2.8534 au,       7.2523 Debye

 output psi filename:./U3O8.movecs


== Timing ==

cputime in seconds
  prologue    :   0.562820E+01
  main loop   :   0.300157E+03
  epilogue    :   0.439370E+00
  total       :   0.306225E+03
  cputime/step:   0.118499E+00       (    2533 evalulations,    1000 linesearches)


Time spent doing                        total          step       percent
  total time                 :   0.306232E+03  0.120897E+00       100.0 %
  i/o time                   :   0.636772E+00  0.251390E-03         0.2 %
  FFTs                       :   0.605247E+02  0.238945E-01        19.8 %
  dot products               :   0.319534E+02  0.126149E-01        10.4 %
  geodesic                   :   0.371120E+02  0.146514E-01        12.1 %
  ffm_dgemm                  :   0.336547E+01  0.132865E-02         1.1 %
  fmf_dgemm                  :   0.120479E+02  0.475636E-02         3.9 %
  m_diagonalize              :   0.225394E+00  0.889829E-04         0.1 %
  exchange correlation       :   0.367780E+01  0.145196E-02         1.2 %
  local pseudopotentials     :   0.303500E-01  0.119818E-04         0.0 %
  non-local pseudopotentials :   0.137180E+02  0.541571E-02         4.5 %
  structure factors          :   0.269423E+00  0.106365E-03         0.1 %
  phase factors              :   0.269403E-04  0.106357E-07         0.0 %
  masking and packing        :   0.105010E+02  0.414568E-02         3.4 %
  queue fft                  :   0.157373E+03  0.621292E-01        51.4 %
  queue fft (serial)         :   0.917590E+02  0.362254E-01        30.0 %
  queue fft (message passing):   0.625576E+02  0.246970E-01        20.4 %
 
     >>>  JOB COMPLETED     AT Fri May  9 00:08:24 2014  <<<

 Task  times  cpu:      301.5s     wall:      306.2s
 
 
                                NWChem Input Module
                                -------------------
 
 
 >>>> PSPW Parallel Module - Car-Parrinello <<<<
          ****************************************************
          *                                                  *
[...]
 
 Vector  165  Occ=0.000000D+00  E= 4.044470D-01
              MO Center= -1.4D-01, -1.9D-01, -3.3D-01, r^2= 9.7D+00
   Bfn.  Coefficient  Atom+Function         Bfn.  Coefficient  Atom+Function  
  ----- ------------  ---------------      ----- ------------  ---------------
   101      7.281599   2 U  pz              185     -6.408964   3 U  pz        
   209     -5.289484   3 U  dxz              99     -5.224770   2 U  px        
   203      5.099536   3 U  dxz             119      4.729648   2 U  dxz       
   118     -4.358714   2 U  dxy             211      4.377055   3 U  dyz       
   122     -4.212194   2 U  dzz              17     -3.846613   1 U  pz        
 
 Vector  166  Occ=0.000000D+00  E= 4.092084D-01
              MO Center= -1.1D-01, -1.0D-01, -2.7D-01, r^2= 1.0D+01
   Bfn.  Coefficient  Atom+Function         Bfn.  Coefficient  Atom+Function  
  ----- ------------  ---------------      ----- ------------  ---------------
   185     15.466754   3 U  pz               89      9.381594   2 U  s         
     3      7.792699   1 U  s               205     -7.785225   3 U  dyz       
     4      6.837679   1 U  s                17      6.790941   1 U  pz        
    38      5.810487   1 U  dzz               5     -5.747392   1 U  s         
   117     -5.726027   2 U  dxx             208      5.637052   3 U  dxy       
 
 Vector  167  Occ=0.000000D+00  E= 4.171951D-01
              MO Center= -7.8D-02,  4.7D-02, -1.8D-01, r^2= 9.5D+00
   Bfn.  Coefficient  Atom+Function         Bfn.  Coefficient  Atom+Function  
  ----- ------------  ---------------      ----- ------------  ---------------
   185     17.523487   3 U  pz              212     11.054732   3 U  dzz       
     5    -10.399727   1 U  s                17      9.424529   1 U  pz        
     3      9.212275   1 U  s                 4      8.789707   1 U  s         
   211      8.347773   3 U  dyz             172     -8.086233   3 U  s         
   171     -7.866065   3 U  s                87     -6.842444   2 U  s         
 
 Vector  168  Occ=0.000000D+00  E= 4.290320D-01
              MO Center= -2.9D-02,  9.2D-03, -4.4D-01, r^2= 8.8D+00
   Bfn.  Coefficient  Atom+Function         Bfn.  Coefficient  Atom+Function  
  ----- ------------  ---------------      ----- ------------  ---------------
   209      6.524939   3 U  dxz             208      6.060756   3 U  dxy       
   205     -5.052317   3 U  dyz               2     -3.881947   1 U  s         
     4      3.643825   1 U  s               210      3.616628   3 U  dyy       
   211      3.517727   3 U  dyz              89      2.992736   2 U  s         
   173      2.860799   3 U  s                 3      2.831625   1 U  s         
 
 Vector  169  Occ=0.000000D+00  E= 4.375175D-01
              MO Center=  4.2D-03, -1.0D-02,  2.4D-01, r^2= 8.4D+00
   Bfn.  Coefficient  Atom+Function         Bfn.  Coefficient  Atom+Function  
  ----- ------------  ---------------      ----- ------------  ---------------
   208      7.886806   3 U  dxy             184     -6.858153   3 U  py        
    89      5.871824   2 U  s               205     -5.850919   3 U  dyz       
   173      5.130551   3 U  s               172     -4.682738   3 U  s         
   206      4.463175   3 U  dzz               5      4.330526   1 U  s         
   171     -4.274245   3 U  s               209      3.935493   3 U  dxz       
 
 Vector  170  Occ=0.000000D+00  E= 4.459725D-01
              MO Center=  4.2D-02,  7.2D-02, -2.7D-01, r^2= 7.9D+00
   Bfn.  Coefficient  Atom+Function         Bfn.  Coefficient  Atom+Function  
  ----- ------------  ---------------      ----- ------------  ---------------
   208      9.253289   3 U  dxy             202     -5.297304   3 U  dxy       
   183      4.885804   3 U  px              186     -3.973962   3 U  px        
   119      3.605702   2 U  dxz             209      2.958113   3 U  dxz       
   211     -2.888319   3 U  dyz              35     -2.868305   1 U  dxz       
    99     -2.726200   2 U  px               41      2.356324   1 U  dxz       
 
 Vector  171  Occ=0.000000D+00  E= 4.686203D-01
              MO Center=  2.2D-01, -1.8D-02,  2.3D-03, r^2= 9.1D+00
   Bfn.  Coefficient  Atom+Function         Bfn.  Coefficient  Atom+Function  
  ----- ------------  ---------------      ----- ------------  ---------------
   208     13.228116   3 U  dxy             211     -7.701448   3 U  dyz       
   207     -7.234109   3 U  dxx             209      6.292818   3 U  dxz       
   185      4.503437   3 U  pz              206      3.884536   3 U  dzz       
   187      3.587584   3 U  py                5     -3.368259   1 U  s         
   431      3.333119  11 O  s               118     -3.309803   2 U  dxy       
 
 Vector  172  Occ=0.000000D+00  E= 4.689952D-01
              MO Center= -3.7D-01,  2.4D-01, -1.4D-01, r^2= 8.7D+00
   Bfn.  Coefficient  Atom+Function         Bfn.  Coefficient  Atom+Function  
  ----- ------------  ---------------      ----- ------------  ---------------
   185     13.794254   3 U  pz              208    -10.962796   3 U  dxy       
    89      8.945540   2 U  s                99      5.595654   2 U  px        
   173      4.976589   3 U  s               207     -4.878572   3 U  dxx       
   186     -4.743240   3 U  px              209     -4.721267   3 U  dxz       
   201     -4.666006   3 U  dxx             212     -4.583150   3 U  dzz       
 
 Vector  173  Occ=0.000000D+00  E= 4.850863D-01
              MO Center=  1.0D-01,  2.6D-03, -1.2D-01, r^2= 8.8D+00
   Bfn.  Coefficient  Atom+Function         Bfn.  Coefficient  Atom+Function  
  ----- ------------  ---------------      ----- ------------  ---------------
   210      9.962339   3 U  dyy              89     -8.472110   2 U  s         
   173     -5.895869   3 U  s               208     -5.601925   3 U  dxy       
     5     -5.220326   1 U  s               204      4.827581   3 U  dyy       
   205      4.192335   3 U  dyz             201      4.159385   3 U  dxx       
    86      4.096589   2 U  s               185     -4.094634   3 U  pz        
 
 Vector  174  Occ=0.000000D+00  E= 4.870479D-01
              MO Center=  1.4D-01,  3.1D-01, -7.1D-02, r^2= 9.1D+00
   Bfn.  Coefficient  Atom+Function         Bfn.  Coefficient  Atom+Function  
  ----- ------------  ---------------      ----- ------------  ---------------
   185     11.855549   3 U  pz                2    -10.564864   1 U  s         
     5     -9.660720   1 U  s               188     -9.452518   3 U  pz        
     4      9.198920   1 U  s                 3      8.893107   1 U  s         
   212      7.928763   3 U  dzz             211      7.281569   3 U  dyz       
   170      7.062157   3 U  s               172     -5.662143   3 U  s         
 
 Vector  175  Occ=0.000000D+00  E= 5.042962D-01
              MO Center=  1.4D-01,  5.5D-02,  1.5D-01, r^2= 8.0D+00
   Bfn.  Coefficient  Atom+Function         Bfn.  Coefficient  Atom+Function  
  ----- ------------  ---------------      ----- ------------  ---------------
   208      7.589057   3 U  dxy             100      6.279745   2 U  py        
   185      4.973309   3 U  pz              204      4.994080   3 U  dyy       
   101     -4.923132   2 U  pz              210      4.894313   3 U  dyy       
   172     -4.697234   3 U  s               171     -4.561658   3 U  s         
   170      4.532828   3 U  s                87     -4.495444   2 U  s         
 

 center of mass
 --------------
 x =   0.00552939 y =  -0.09901731 z =  -0.13417306

 moments of inertia (a.u.)
 ------------------
        5873.280200342392          84.652421481445        -697.584898656891
          84.652421481445        5800.122066773789        -370.642488037228
        -697.584898656891        -370.642488037228        2045.339117977683
 
     Multipole analysis of the density
     ---------------------------------
 
     L   x y z        total         alpha         beta         nuclear
     -   - - -        -----         -----         ----         -------
     0   0 0 0      2.000000    -52.000000    -52.000000    106.000000
 
     1   1 0 0     -0.309358    -11.647100    -11.647100     22.984842
     1   0 1 0     -1.256042    -24.842594    -24.842594     48.429146
     1   0 0 1     -1.124991     -3.179288     -3.179288      5.233584
 
     2   2 0 0    -85.829120   -264.786766   -264.786766    443.744413
     2   1 1 0     -0.536768     27.242003     27.242003    -55.020774
     2   1 0 1      5.407674    -16.241708    -16.241708     37.891090
     2   0 2 0    -82.515252   -282.800950   -282.800950    483.086649
     2   0 1 1      2.939271    -59.356805    -59.356805    121.652881
     2   0 0 2    -44.170275   -244.501533   -244.501533    444.832792
 

------------------------------------------------------------
EAF file 0: "/work2/padamson/680328.SPIRIT/U3O8.aoints.00" size=4782030848 bytes
------------------------------------------------------------
               write      read    awrite     aread      wait
               -----      ----    ------     -----      ----
     calls:    12768       104         0    915643    915643
   data(b): 6.69e+09  5.45e+07  0.00e+00  4.80e+11
   time(s): 0.00e+00  0.00e+00  0.00e+00  0.00e+00  0.00e+00
rate(mb/s): 0.00e+00  0.00e+00
------------------------------------------------------------


 Parallel integral file used  144861 records with       0 large values

 ------------------------------------------------------------------------
 driver: task_gradient failed        0
 ------------------------------------------------------------------------
 There is an error related to the specified geometry
 ------------------------------------------------------------------------
 For more information see the NWChem manual at 
 http://www.nwchem-sw.org/index.php/NWChem_Documentation


 For further details see manual section: 
                                                                                
                                                                                
                                                                                
                   
 driver: task_gradient failed        0
 ------------------------------------------------------------------------
 driver: task_gradient failed        0
 ------------------------------------------------------------------------
 driver: task_gradient failed        0
 ------------------------------------------------------------------------
 driver: task_gradient failed        0
 ------------------------------------------------------------------------
 driver: task_gradient failed        0
 ------------------------------------------------------------------------
 driver: task_gradient failed        0
 ------------------------------------------------------------------------
 driver: task_gradient failed        0
 ------------------------------------------------------------------------
 driver: task_gradient failed        0
 ------------------------------------------------------------------------
 driver: task_gradient failed        0
 ------------------------------------------------------------------------
 driver: task_gradient failed        0
 ------------------------------------------------------------------------
 driver: task_gradient failed        0
 ------------------------------------------------------------------------
 driver: task_gradient failed        0
 ------------------------------------------------------------------------
 There is an error related to the specified geometry
 ------------------------------------------------------------------------
 For more information see the NWChem manual at 
 http://www.nwchem-sw.org/index.php/NWChem_Documentation


 For further details see manual section: 
                                                                                
                                                                                
                                                                                
                   
 There is an error related to the specified geometry
 ------------------------------------------------------------------------
 For more information see the NWChem manual at 
 http://www.nwchem-sw.org/index.php/NWChem_Documentation


 For further details see manual section: 
                                                                                
                                                                                
                                                                                
 driver: task_gradient failed        0
 There is an error related to the specified geometry
 ------------------------------------------------------------------------
 For more information see the NWChem manual at 
 http://www.nwchem-sw.org/index.php/NWChem_Documentation
                   
 ------------------------------------------------------------------------


 For further details see manual section: 
                                                                                
                                                                                
                                                                                
                   
 There is an error related to the specified geometry
 ------------------------------------------------------------------------
 For more information see the NWChem manual at 
 http://www.nwchem-sw.org/index.php/NWChem_Documentation


 For further details see manual section: 
                                                                                
                                                                                
                                                                                
                   
 There is an error related to the specified geometry
 ------------------------------------------------------------------------
 For more information see the NWChem manual at 
 http://www.nwchem-sw.org/index.php/NWChem_Documentation


 For further details see manual section: 
                                                                                
                                                                                
                                                                                
                   
 There is an error related to the specified geometry
 ------------------------------------------------------------------------
 For more information see the NWChem manual at 
 http://www.nwchem-sw.org/index.php/NWChem_Documentation


 For further details see manual section: 
                                                                                
                                                                                
                                                                                
 There is an error related to the specified geometry
 ------------------------------------------------------------------------
 For more information see the NWChem manual at 
 http://www.nwchem-sw.org/index.php/NWChem_Documentation


 For further details see manual section: 
                                                                                
                                                                                
                                                                                
                   
                   
 There is an error related to the specified geometry
 ------------------------------------------------------------------------
 For more information see the NWChem manual at 
 http://www.nwchem-sw.org/index.php/NWChem_Documentation


 For further details see manual section: 
                                                                                
                                                                                
                                                                                
                   
 There is an error related to the specified geometry
 ------------------------------------------------------------------------
 For more information see the NWChem manual at 
 http://www.nwchem-sw.org/index.php/NWChem_Documentation


 For further details see manual section: 
                                                                                
                                                                                
                                                                                
                   
 There is an error related to the specified geometry
 ------------------------------------------------------------------------
 For more information see the NWChem manual at 
 http://www.nwchem-sw.org/index.php/NWChem_Documentation


 For further details see manual section: 
                                                                                
                                                                                
                                                                                
                   
 There is an error related to the specified geometry
 ------------------------------------------------------------------------
 For more information see the NWChem manual at 
 http://www.nwchem-sw.org/index.php/NWChem_Documentation


 For further details see manual section: 
                                                                                
                                                                                
                                                                                
                   
 There is an error related to the specified geometry
 ------------------------------------------------------------------------
 For more information see the NWChem manual at 
 http://www.nwchem-sw.org/index.php/NWChem_Documentation


 For further details see manual section: 
                                                                                
                                                                                
                                                                                
                   
 There is an error related to the specified geometry
 ------------------------------------------------------------------------
 For more information see the NWChem manual at 
 http://www.nwchem-sw.org/index.php/NWChem_Documentation


 For further details see manual section: 
                                                                                
                                                                                
                                                                                
                   
 driver: task_gradient failed        0
 ------------------------------------------------------------------------
 driver: task_gradient failed        0
 ------------------------------------------------------------------------
 There is an error related to the specified geometry
 ------------------------------------------------------------------------
 For more information see the NWChem manual at 
 http://www.nwchem-sw.org/index.php/NWChem_Documentation


 For further details see manual section: 
                                                                                
                                                                                
                                                                                
                   
 There is an error related to the specified geometry
 ------------------------------------------------------------------------
 For more information see the NWChem manual at 
 http://www.nwchem-sw.org/index.php/NWChem_Documentation


 For further details see manual section: 
                                                                                
                                                                                
                                                                                
                   
APPLICATION TERMINATED WITH THE EXIT STRING: Hangup (signal 1)
